# LAMMPS data file for MOF_3805
# Cell parameters: a=22.453 b=22.453 c=22.453
# Cell angles: alpha=90.0° beta=90.0° gamma=90.0°
# <<Zeo++>>
# Framework_density: 1.384257 g/cm3
# Accessible_surface_area: 1792.110000 m2/g
# Void_fraction: 0.244860
# Accessible_volume: 0.176889 cm3/g
# Largest_included_sphere_diameter: 10.575350 A
# Largest_free_sphere_diameter: 5.757070 A
# Pore_limiting_diameter: 6.515840 A
# <<Zeo++>>
464 atoms
0 bonds
0 angles
0 dihedrals
0 impropers

8 atom types

0.0 22.453000 xlo xhi
0.0 22.453000 ylo yhi
0.0 22.453000 zlo zhi

Masses

1 79.904  # Br
2 12.011  # C
3 1.008  # H
4 114.818  # In
5 14.007  # N
6 15.999  # O
7 2.016  # H2 (GCMC insert - neutral charge)
8 16.043  # CH4 (GCMC insert - neutral charge)

Atoms  

1 1 4 1.322900 7.236602 16.596359 18.104527
2 1 4 1.322900 15.216398 5.856641 18.104527
3 1 4 1.322900 15.216398 16.596359 4.348473
4 1 4 1.322900 7.236602 5.856641 4.348473
5 1 4 1.322900 18.104527 7.236602 16.596359
6 1 4 1.322900 18.104527 15.216398 5.856641
7 1 4 1.322900 4.348473 15.216398 16.596359
8 1 4 1.322900 4.348473 7.236602 5.856641
9 1 4 1.322900 16.596359 18.104527 7.236602
10 1 4 1.322900 5.856641 18.104527 15.216398
11 1 4 1.322900 16.596359 4.348473 15.216398
12 1 4 1.322900 5.856641 4.348473 7.236602
13 1 4 1.322900 5.369859 18.463102 6.878027
14 1 4 1.322900 17.083141 3.989898 6.878027
15 1 4 1.322900 5.369859 3.989898 15.574973
16 1 4 1.322900 17.083141 18.463102 15.574973
17 1 4 1.322900 18.463102 6.878027 5.369859
18 1 4 1.322900 3.989898 6.878027 17.083141
19 1 4 1.322900 3.989898 15.574973 5.369859
20 1 4 1.322900 18.463102 15.574973 17.083141
21 1 4 1.322900 6.878027 5.369859 18.463102
22 1 4 1.322900 6.878027 17.083141 3.989898
23 1 4 1.322900 15.574973 5.369859 3.989898
24 1 4 1.322900 15.574973 17.083141 18.463102
25 1 3 0.120300 9.558242 17.888305 13.065401
26 1 3 0.120300 12.894758 4.564695 13.065401
27 1 3 0.120300 12.894758 17.888305 9.387599
28 1 3 0.120300 9.558242 4.564695 9.387599
29 1 3 0.120300 13.065401 9.558242 17.888305
30 1 3 0.120300 13.065401 12.894758 4.564695
31 1 3 0.120300 9.387599 12.894758 17.888305
32 1 3 0.120300 9.387599 9.558242 4.564695
33 1 3 0.120300 17.888305 13.065401 9.558242
34 1 3 0.120300 4.564695 13.065401 12.894758
35 1 3 0.120300 17.888305 9.387599 12.894758
36 1 3 0.120300 4.564695 9.387599 9.558242
37 1 3 0.120300 6.661805 20.784742 1.838901
38 1 3 0.120300 15.791195 1.668258 1.838901
39 1 3 0.120300 6.661805 1.668258 20.614099
40 1 3 0.120300 15.791195 20.784742 20.614099
41 1 3 0.120300 20.784742 1.838901 6.661805
42 1 3 0.120300 1.668258 1.838901 15.791195
43 1 3 0.120300 1.668258 20.614099 6.661805
44 1 3 0.120300 20.784742 20.614099 15.791195
45 1 3 0.120300 1.838901 6.661805 20.784742
46 1 3 0.120300 1.838901 15.791195 1.668258
47 1 3 0.120300 20.614099 6.661805 1.668258
48 1 3 0.120300 20.614099 15.791195 20.784742
49 1 3 0.120300 11.439803 17.524566 16.644409
50 1 3 0.120300 11.013196 4.928433 16.644409
51 1 3 0.120300 11.013196 17.524566 5.808591
52 1 3 0.120300 11.439803 4.928433 5.808591
53 1 3 0.120300 16.644409 11.439803 17.524566
54 1 3 0.120300 16.644409 11.013196 4.928433
55 1 3 0.120300 5.808591 11.013196 17.524566
56 1 3 0.120300 5.808591 11.439803 4.928433
57 1 3 0.120300 17.524566 16.644409 11.439803
58 1 3 0.120300 4.928433 16.644409 11.013196
59 1 3 0.120300 17.524566 5.808591 11.013196
60 1 3 0.120300 4.928433 5.808591 11.439803
61 1 3 0.120300 6.298067 0.213303 5.417909
62 1 3 0.120300 16.154933 22.239697 5.417909
63 1 3 0.120300 6.298067 22.239697 17.035091
64 1 3 0.120300 16.154933 0.213303 17.035091
65 1 3 0.120300 0.213303 5.417909 6.298067
66 1 3 0.120300 22.239697 5.417909 16.154933
67 1 3 0.120300 22.239697 17.035091 6.298067
68 1 3 0.120300 0.213303 17.035091 16.154933
69 1 3 0.120300 5.417909 6.298067 0.213303
70 1 3 0.120300 5.417909 16.154933 22.239697
71 1 3 0.120300 17.035091 6.298067 22.239697
72 1 3 0.120300 17.035091 16.154933 0.213303
73 1 3 0.126301 13.588556 18.144269 13.262987
74 1 3 0.126301 8.864444 4.308731 13.262987
75 1 3 0.126301 8.864444 18.144269 9.190013
76 1 3 0.126301 13.588556 4.308731 9.190013
77 1 3 0.126301 13.262987 13.588556 18.144269
78 1 3 0.126301 13.262987 8.864444 4.308731
79 1 3 0.126301 9.190013 8.864444 18.144269
80 1 3 0.126301 9.190013 13.588556 4.308731
81 1 3 0.126301 18.144269 13.262987 13.588556
82 1 3 0.126301 4.308731 13.262987 8.864444
83 1 3 0.126301 18.144269 9.190013 8.864444
84 1 3 0.126301 4.308731 9.190013 13.588556
85 1 3 0.126301 6.917769 2.362056 2.036487
86 1 3 0.126301 15.535231 20.090944 2.036487
87 1 3 0.126301 6.917769 20.090944 20.416513
88 1 3 0.126301 15.535231 2.362056 20.416513
89 1 3 0.126301 2.362056 2.036487 6.917769
90 1 3 0.126301 20.090944 2.036487 15.535231
91 1 3 0.126301 20.090944 20.416513 6.917769
92 1 3 0.126301 2.362056 20.416513 15.535231
93 1 3 0.126301 2.036487 6.917769 2.362056
94 1 3 0.126301 2.036487 15.535231 20.090944
95 1 3 0.126301 20.416513 6.917769 20.090944
96 1 3 0.126301 20.416513 15.535231 2.362056
97 1 2 -0.162797 10.355324 17.850135 13.577329
98 1 2 -0.162797 12.097676 4.602865 13.577329
99 1 2 -0.162797 12.097676 17.850135 8.875671
100 1 2 -0.162797 10.355324 4.602865 8.875671
101 1 2 -0.162797 13.577329 10.355324 17.850135
102 1 2 -0.162797 13.577329 12.097676 4.602865
103 1 2 -0.162797 8.875671 12.097676 17.850135
104 1 2 -0.162797 8.875671 10.355324 4.602865
105 1 2 -0.162797 17.850135 13.577329 10.355324
106 1 2 -0.162797 4.602865 13.577329 12.097676
107 1 2 -0.162797 17.850135 8.875671 12.097676
108 1 2 -0.162797 4.602865 8.875671 10.355324
109 1 2 -0.162797 6.623635 21.581824 2.350829
110 1 2 -0.162797 15.829365 0.871176 2.350829
111 1 2 -0.162797 6.623635 0.871176 20.102171
112 1 2 -0.162797 15.829365 21.581824 20.102171
113 1 2 -0.162797 21.581824 2.350829 6.623635
114 1 2 -0.162797 0.871176 2.350829 15.829365
115 1 2 -0.162797 0.871176 20.102171 6.623635
116 1 2 -0.162797 21.581824 20.102171 15.829365
117 1 2 -0.162797 2.350829 6.623635 21.581824
118 1 2 -0.162797 2.350829 15.829365 0.871176
119 1 2 -0.162797 20.102171 6.623635 0.871176
120 1 2 -0.162797 20.102171 15.829365 21.581824
121 1 2 -0.029059 10.301436 17.661530 14.958189
122 1 2 -0.029059 12.151564 4.791470 14.958189
123 1 2 -0.029059 12.151564 17.661530 7.494811
124 1 2 -0.029059 10.301436 4.791470 7.494811
125 1 2 -0.029059 14.958189 10.301436 17.661530
126 1 2 -0.029059 14.958189 12.151564 4.791470
127 1 2 -0.029059 7.494811 12.151564 17.661530
128 1 2 -0.029059 7.494811 10.301436 4.791470
129 1 2 -0.029059 17.661530 14.958189 10.301436
130 1 2 -0.029059 4.791470 14.958189 12.151564
131 1 2 -0.029059 17.661530 7.494811 12.151564
132 1 2 -0.029059 4.791470 7.494811 10.301436
133 1 2 -0.029059 6.435030 21.527936 3.731689
134 1 2 -0.029059 16.017970 0.925064 3.731689
135 1 2 -0.029059 6.435030 0.925064 18.721311
136 1 2 -0.029059 16.017970 21.527936 18.721311
137 1 2 -0.029059 21.527936 3.731689 6.435030
138 1 2 -0.029059 0.925064 3.731689 16.017970
139 1 2 -0.029059 0.925064 18.721311 6.435030
140 1 2 -0.029059 21.527936 18.721311 16.017970
141 1 2 -0.029059 3.731689 6.435030 21.527936
142 1 2 -0.029059 3.731689 16.017970 0.925064
143 1 2 -0.029059 18.721311 6.435030 0.925064
144 1 2 -0.029059 18.721311 16.017970 21.527936
145 1 2 -0.119908 11.477974 17.650303 15.703628
146 1 2 -0.119908 10.975026 4.802697 15.703628
147 1 2 -0.119908 10.975026 17.650303 6.749372
148 1 2 -0.119908 11.477974 4.802697 6.749372
149 1 2 -0.119908 15.703628 11.477974 17.650303
150 1 2 -0.119908 15.703628 10.975026 4.802697
151 1 2 -0.119908 6.749372 10.975026 17.650303
152 1 2 -0.119908 6.749372 11.477974 4.802697
153 1 2 -0.119908 17.650303 15.703628 11.477974
154 1 2 -0.119908 4.802697 15.703628 10.975026
155 1 2 -0.119908 17.650303 6.749372 10.975026
156 1 2 -0.119908 4.802697 6.749372 11.477974
157 1 2 -0.119908 6.423803 0.251474 4.477128
158 1 2 -0.119908 16.029197 22.201526 4.477128
159 1 2 -0.119908 6.423803 22.201526 17.975872
160 1 2 -0.119908 16.029197 0.251474 17.975872
161 1 2 -0.119908 0.251474 4.477128 6.423803
162 1 2 -0.119908 22.201526 4.477128 16.029197
163 1 2 -0.119908 22.201526 17.975872 6.423803
164 1 2 -0.119908 0.251474 17.975872 16.029197
165 1 2 -0.119908 4.477128 6.423803 0.251474
166 1 2 -0.119908 4.477128 16.029197 22.201526
167 1 2 -0.119908 17.975872 6.423803 22.201526
168 1 2 -0.119908 17.975872 16.029197 0.251474
169 1 2 0.141892 11.592484 17.984853 12.964362
170 1 2 0.141892 10.860516 4.468147 12.964362
171 1 2 0.141892 10.860516 17.984853 9.488638
172 1 2 0.141892 11.592484 4.468147 9.488638
173 1 2 0.141892 12.964362 11.592484 17.984853
174 1 2 0.141892 12.964362 10.860516 4.468147
175 1 2 0.141892 9.488638 10.860516 17.984853
176 1 2 0.141892 9.488638 11.592484 4.468147
177 1 2 0.141892 17.984853 12.964362 11.592484
178 1 2 0.141892 4.468147 12.964362 10.860516
179 1 2 0.141892 17.984853 9.488638 10.860516
180 1 2 0.141892 4.468147 9.488638 11.592484
181 1 2 0.141892 6.758353 0.365984 1.737862
182 1 2 0.141892 15.694647 22.087016 1.737862
183 1 2 0.141892 6.758353 22.087016 20.715138
184 1 2 0.141892 15.694647 0.365984 20.715138
185 1 2 0.141892 0.365984 1.737862 6.758353
186 1 2 0.141892 22.087016 1.737862 15.694647
187 1 2 0.141892 22.087016 20.715138 6.758353
188 1 2 0.141892 0.365984 20.715138 15.694647
189 1 2 0.141892 1.737862 6.758353 0.365984
190 1 2 0.141892 1.737862 15.694647 22.087016
191 1 2 0.141892 20.715138 6.758353 22.087016
192 1 2 0.141892 20.715138 15.694647 0.365984
193 1 2 0.609921 8.958747 17.508849 15.607080
194 1 2 0.609921 13.494253 4.944151 15.607080
195 1 2 0.609921 13.494253 17.508849 6.845920
196 1 2 0.609921 8.958747 4.944151 6.845920
197 1 2 0.609921 15.607080 8.958747 17.508849
198 1 2 0.609921 15.607080 13.494253 4.944151
199 1 2 0.609921 6.845920 13.494253 17.508849
200 1 2 0.609921 6.845920 8.958747 4.944151
201 1 2 0.609921 17.508849 15.607080 8.958747
202 1 2 0.609921 4.944151 15.607080 13.494253
203 1 2 0.609921 17.508849 6.845920 13.494253
204 1 2 0.609921 4.944151 6.845920 8.958747
205 1 2 0.609921 6.282349 20.185247 4.380580
206 1 2 0.609921 16.170651 2.267753 4.380580
207 1 2 0.609921 6.282349 2.267753 18.072420
208 1 2 0.609921 16.170651 20.185247 18.072420
209 1 2 0.609921 20.185247 4.380580 6.282349
210 1 2 0.609921 2.267753 4.380580 16.170651
211 1 2 0.609921 2.267753 18.072420 6.282349
212 1 2 0.609921 20.185247 18.072420 16.170651
213 1 2 0.609921 4.380580 6.282349 20.185247
214 1 2 0.609921 4.380580 16.170651 2.267753
215 1 2 0.609921 18.072420 6.282349 2.267753
216 1 2 0.609921 18.072420 16.170651 20.185247
217 1 2 -0.029059 12.690436 17.818701 15.083925
218 1 2 -0.029059 9.762564 4.634299 15.083925
219 1 2 -0.029059 9.762564 17.818701 7.369075
220 1 2 -0.029059 12.690436 4.634299 7.369075
221 1 2 -0.029059 15.083925 12.690436 17.818701
222 1 2 -0.029059 15.083925 9.762564 4.634299
223 1 2 -0.029059 7.369075 9.762564 17.818701
224 1 2 -0.029059 7.369075 12.690436 4.634299
225 1 2 -0.029059 17.818701 15.083925 12.690436
226 1 2 -0.029059 4.634299 15.083925 9.762564
227 1 2 -0.029059 17.818701 7.369075 9.762564
228 1 2 -0.029059 4.634299 7.369075 12.690436
229 1 2 -0.029059 6.592201 1.463936 3.857425
230 1 2 -0.029059 15.860799 20.989064 3.857425
231 1 2 -0.029059 6.592201 20.989064 18.595575
232 1 2 -0.029059 15.860799 1.463936 18.595575
233 1 2 -0.029059 1.463936 3.857425 6.592201
234 1 2 -0.029059 20.989064 3.857425 15.860799
235 1 2 -0.029059 20.989064 18.595575 6.592201
236 1 2 -0.029059 1.463936 18.595575 15.860799
237 1 2 -0.029059 3.857425 6.592201 1.463936
238 1 2 -0.029059 3.857425 15.860799 20.989064
239 1 2 -0.029059 18.595575 6.592201 20.989064
240 1 2 -0.029059 18.595575 15.860799 1.463936
241 1 2 -0.162797 12.753304 18.005061 13.691839
242 1 2 -0.162797 9.699696 4.447939 13.691839
243 1 2 -0.162797 9.699696 18.005061 8.761161
244 1 2 -0.162797 12.753304 4.447939 8.761161
245 1 2 -0.162797 13.691839 12.753304 18.005061
246 1 2 -0.162797 13.691839 9.699696 4.447939
247 1 2 -0.162797 8.761161 9.699696 18.005061
248 1 2 -0.162797 8.761161 12.753304 4.447939
249 1 2 -0.162797 18.005061 13.691839 12.753304
250 1 2 -0.162797 4.447939 13.691839 9.699696
251 1 2 -0.162797 18.005061 8.761161 9.699696
252 1 2 -0.162797 4.447939 8.761161 12.753304
253 1 2 -0.162797 6.778561 1.526804 2.465339
254 1 2 -0.162797 15.674439 20.926196 2.465339
255 1 2 -0.162797 6.778561 20.926196 19.987661
256 1 2 -0.162797 15.674439 1.526804 19.987661
257 1 2 -0.162797 1.526804 2.465339 6.778561
258 1 2 -0.162797 20.926196 2.465339 15.674439
259 1 2 -0.162797 20.926196 19.987661 6.778561
260 1 2 -0.162797 1.526804 19.987661 15.674439
261 1 2 -0.162797 2.465339 6.778561 1.526804
262 1 2 -0.162797 2.465339 15.674439 20.926196
263 1 2 -0.162797 19.987661 6.778561 20.926196
264 1 2 -0.162797 19.987661 15.674439 1.526804
265 1 2 0.609921 13.990464 17.841154 15.833856
266 1 2 0.609921 8.462536 4.611846 15.833856
267 1 2 0.609921 8.462536 17.841154 6.619144
268 1 2 0.609921 13.990464 4.611846 6.619144
269 1 2 0.609921 15.833856 13.990464 17.841154
270 1 2 0.609921 15.833856 8.462536 4.611846
271 1 2 0.609921 6.619144 8.462536 17.841154
272 1 2 0.609921 6.619144 13.990464 4.611846
273 1 2 0.609921 17.841154 15.833856 13.990464
274 1 2 0.609921 4.611846 15.833856 8.462536
275 1 2 0.609921 17.841154 6.619144 8.462536
276 1 2 0.609921 4.611846 6.619144 13.990464
277 1 2 0.609921 6.614654 2.763964 4.607356
278 1 2 0.609921 15.838346 19.689036 4.607356
279 1 2 0.609921 6.614654 19.689036 17.845644
280 1 2 0.609921 15.838346 2.763964 17.845644
281 1 2 0.609921 2.763964 4.607356 6.614654
282 1 2 0.609921 19.689036 4.607356 15.838346
283 1 2 0.609921 19.689036 17.845644 6.614654
284 1 2 0.609921 2.763964 17.845644 15.838346
285 1 2 0.609921 4.607356 6.614654 2.763964
286 1 2 0.609921 4.607356 15.838346 19.689036
287 1 2 0.609921 17.845644 6.614654 19.689036
288 1 2 0.609921 17.845644 15.838346 2.763964
289 1 1 0.416684 9.017574 16.543370 20.023361
290 1 1 0.409156 13.435426 5.909630 20.023361
291 1 1 0.409156 13.435426 16.543370 2.429639
292 1 1 0.409156 9.017574 5.909630 2.429639
293 1 1 0.416684 20.023361 9.017574 16.543370
294 1 1 0.409156 20.023361 13.435426 5.909630
295 1 1 0.409156 2.429639 13.435426 16.543370
296 1 1 0.409156 2.429639 9.017574 5.909630
297 1 1 0.416684 16.543370 20.023361 9.017574
298 1 1 0.409156 5.909630 20.023361 13.435426
299 1 1 0.409156 16.543370 2.429639 13.435426
300 1 1 0.409156 5.909630 2.429639 9.017574
301 1 1 0.416684 5.316870 20.244074 8.796861
302 1 1 0.409156 17.136130 2.208926 8.796861
303 1 1 0.409156 5.316870 2.208926 13.656139
304 1 1 0.409156 17.136130 20.244074 13.656139
305 1 1 0.409156 20.244074 8.796861 5.316870
306 1 1 0.416684 2.208926 8.796861 17.136130
307 1 1 0.409156 2.208926 13.656139 5.316870
308 1 1 0.409156 20.244074 13.656139 17.136130
309 1 1 0.409156 8.796861 5.316870 20.244074
310 1 1 0.416684 8.796861 17.136130 2.208926
311 1 1 0.409156 13.656139 5.316870 2.208926
312 1 1 0.409156 13.656139 17.136130 20.244074
313 1 5 -0.112804 11.740674 18.056703 11.536351
314 1 5 -0.112804 10.712326 4.396297 11.536351
315 1 5 -0.112804 10.712326 18.056703 10.916649
316 1 5 -0.112804 11.740674 4.396297 10.916649
317 1 5 -0.112804 11.536351 11.740674 18.056703
318 1 5 -0.112804 11.536351 10.712326 4.396297
319 1 5 -0.112804 10.916649 10.712326 18.056703
320 1 5 -0.112804 10.916649 11.740674 4.396297
321 1 5 -0.112804 18.056703 11.536351 11.740674
322 1 5 -0.112804 4.396297 11.536351 10.712326
323 1 5 -0.112804 18.056703 10.916649 10.712326
324 1 5 -0.112804 4.396297 10.916649 11.740674
325 1 5 -0.112804 6.830203 0.514174 0.309851
326 1 5 -0.112804 15.622797 21.938826 0.309851
327 1 5 -0.112804 6.830203 21.938826 22.143149
328 1 5 -0.112804 15.622797 0.514174 22.143149
329 1 5 -0.112804 0.514174 0.309851 6.830203
330 1 5 -0.112804 21.938826 0.309851 15.622797
331 1 5 -0.112804 21.938826 22.143149 6.830203
332 1 5 -0.112804 0.514174 22.143149 15.622797
333 1 5 -0.112804 0.309851 6.830203 0.514174
334 1 5 -0.112804 0.309851 15.622797 21.938826
335 1 5 -0.112804 22.143149 6.830203 21.938826
336 1 5 -0.112804 22.143149 15.622797 0.514174
337 1 6 -0.571523 8.912943 17.095714 16.790353
338 1 6 -0.571523 13.540057 5.357286 16.790353
339 1 6 -0.571523 13.540057 17.095714 5.662647
340 1 6 -0.571523 8.912943 5.357286 5.662647
341 1 6 -0.571523 16.790353 8.912943 17.095714
342 1 6 -0.571523 16.790353 13.540057 5.357286
343 1 6 -0.571523 5.662647 13.540057 17.095714
344 1 6 -0.571523 5.662647 8.912943 5.357286
345 1 6 -0.571523 17.095714 16.790353 8.912943
346 1 6 -0.571523 5.357286 16.790353 13.540057
347 1 6 -0.571523 17.095714 5.662647 13.540057
348 1 6 -0.571523 5.357286 5.662647 8.912943
349 1 6 -0.571523 5.869214 20.139443 5.563853
350 1 6 -0.571523 16.583786 2.313557 5.563853
351 1 6 -0.571523 5.869214 2.313557 16.889147
352 1 6 -0.571523 16.583786 20.139443 16.889147
353 1 6 -0.571523 20.139443 5.563853 5.869214
354 1 6 -0.571523 2.313557 5.563853 16.583786
355 1 6 -0.571523 2.313557 16.889147 5.869214
356 1 6 -0.571523 20.139443 16.889147 16.583786
357 1 6 -0.571523 5.563853 5.869214 20.139443
358 1 6 -0.571523 5.563853 16.583786 2.313557
359 1 6 -0.571523 16.889147 5.869214 2.313557
360 1 6 -0.571523 16.889147 16.583786 20.139443
361 1 6 -0.575323 13.952294 17.517831 17.046318
362 1 6 -0.575323 8.500706 4.935169 17.046318
363 1 6 -0.575323 8.500706 17.517831 5.406682
364 1 6 -0.575323 13.952294 4.935169 5.406682
365 1 6 -0.575323 17.046318 13.952294 17.517831
366 1 6 -0.575323 17.046318 8.500706 4.935169
367 1 6 -0.575323 5.406682 8.500706 17.517831
368 1 6 -0.575323 5.406682 13.952294 4.935169
369 1 6 -0.575323 17.517831 17.046318 13.952294
370 1 6 -0.575323 4.935169 17.046318 8.500706
371 1 6 -0.575323 17.517831 5.406682 8.500706
372 1 6 -0.575323 4.935169 5.406682 13.952294
373 1 6 -0.575323 6.291331 2.725794 5.819818
374 1 6 -0.575323 16.161669 19.727206 5.819818
375 1 6 -0.575323 6.291331 19.727206 16.633182
376 1 6 -0.575323 16.161669 2.725794 16.633182
377 1 6 -0.575323 2.725794 5.819818 6.291331
378 1 6 -0.575323 19.727206 5.819818 16.161669
379 1 6 -0.575323 19.727206 16.633182 6.291331
380 1 6 -0.571523 2.725794 16.633182 16.161669
381 1 6 -0.575323 5.819818 6.291331 2.725794
382 1 6 -0.575323 5.819818 16.161669 19.727206
383 1 6 -0.575323 16.633182 6.291331 19.727206
384 1 6 -0.575323 16.633182 16.161669 2.725794
385 1 6 -0.588105 7.955098 17.816456 14.879603
386 1 6 -0.588105 14.497902 4.636544 14.879603
387 1 6 -0.588105 14.497902 17.816456 7.573397
388 1 6 -0.588105 7.955098 4.636544 7.573397
389 1 6 -0.588105 14.879603 7.955098 17.816456
390 1 6 -0.588105 14.879603 14.497902 4.636544
391 1 6 -0.588105 7.573397 14.497902 17.816456
392 1 6 -0.588105 7.573397 7.955098 4.636544
393 1 6 -0.588105 17.816456 14.879603 7.955098
394 1 6 -0.588105 4.636544 14.879603 14.497902
395 1 6 -0.588105 17.816456 7.573397 14.497902
396 1 6 -0.588105 4.636544 7.573397 7.955098
397 1 6 -0.588105 6.589955 19.181598 3.653103
398 1 6 -0.588105 15.863044 3.271402 3.653103
399 1 6 -0.588105 6.589955 3.271402 18.799897
400 1 6 -0.588105 15.863044 19.181598 18.799897
401 1 6 -0.588105 19.181598 3.653103 6.589955
402 1 6 -0.588105 3.271402 3.653103 15.863044
403 1 6 -0.588105 3.271402 18.799897 6.589955
404 1 6 -0.588105 19.181598 18.799897 15.863044
405 1 6 -0.588105 3.653103 6.589955 19.181598
406 1 6 -0.588105 3.653103 15.863044 3.271402
407 1 6 -0.588105 18.799897 6.589955 3.271402
408 1 6 -0.588105 18.799897 15.863044 19.181598
409 1 6 -0.575323 14.991868 18.200402 15.173737
410 1 6 -0.575323 7.461132 4.252598 15.173737
411 1 6 -0.575323 7.461132 18.200402 7.279263
412 1 6 -0.575323 14.991868 4.252598 7.279263
413 1 6 -0.575323 15.173737 14.991868 18.200402
414 1 6 -0.575323 15.173737 7.461132 4.252598
415 1 6 -0.575323 7.279263 7.461132 18.200402
416 1 6 -0.575323 7.279263 14.991868 4.252598
417 1 6 -0.575323 18.200402 15.173737 14.991868
418 1 6 -0.575323 4.252598 15.173737 7.461132
419 1 6 -0.575323 18.200402 7.279263 7.461132
420 1 6 -0.575323 4.252598 7.279263 14.991868
421 1 6 -0.575323 6.973902 3.765368 3.947237
422 1 6 -0.575323 15.479098 18.687632 3.947237
423 1 6 -0.575323 6.973902 18.687632 18.505763
424 1 6 -0.575323 15.479098 3.765368 18.505763
425 1 6 -0.575323 3.765368 3.947237 6.973902
426 1 6 -0.575323 18.687632 3.947237 15.479098
427 1 6 -0.575323 18.687632 18.505763 6.973902
428 1 6 -0.575323 3.765368 18.505763 15.479098
429 1 6 -0.575323 3.947237 6.973902 3.765368
430 1 6 -0.575323 3.947237 15.479098 18.687632
431 1 6 -0.575323 18.505763 6.973902 18.687632
432 1 6 -0.575323 18.505763 15.479098 3.765368
433 1 6 -1.018875 5.828799 16.624201 16.624201
434 1 6 -1.018875 16.624201 5.828799 16.624201
435 1 6 -1.018875 16.624201 16.624201 5.828799
436 1 6 -1.018875 5.828799 5.828799 5.828799
437 1 6 -1.018875 5.397701 17.055299 5.397701
438 1 6 -1.018875 17.055299 5.397701 5.397701
439 1 6 -1.018875 5.397701 5.397701 17.055299
440 1 6 -1.018875 17.055299 17.055299 17.055299
441 1 6 -0.196406 8.711764 16.525408 19.570035
442 1 6 -0.196406 13.741236 5.927592 19.570035
443 1 6 -0.196406 13.741236 16.525408 2.882965
444 1 6 -0.196406 8.711764 5.927592 2.882965
445 1 6 -0.196406 19.570035 8.711764 16.525408
446 1 6 -0.196406 19.570035 13.741236 5.927592
447 1 6 -0.196406 2.882965 13.741236 16.525408
448 1 6 -0.196406 2.882965 8.711764 5.927592
449 1 6 -0.196406 16.525408 19.570035 8.711764
450 1 6 -0.196406 5.927592 19.570035 13.741236
451 1 6 -0.196406 16.525408 2.882965 13.741236
452 1 6 -0.196406 5.927592 2.882965 8.711764
453 1 6 -0.196406 5.298908 19.938264 8.343535
454 1 6 -0.196406 17.154092 2.514736 8.343535
455 1 6 -0.196406 5.298908 2.514736 14.109465
456 1 6 -0.196406 17.154092 19.938264 14.109465
457 1 6 -0.196406 19.938264 8.343535 5.298908
458 1 6 -0.196406 2.514736 8.343535 17.154092
459 1 6 -0.196406 2.514736 14.109465 5.298908
460 1 6 -0.196406 19.938264 14.109465 17.154092
461 1 6 -0.196406 8.343535 5.298908 19.938264
462 1 6 -0.196406 8.343535 17.154092 2.514736
463 1 6 -0.196406 14.109465 5.298908 2.514736
464 1 6 -0.196406 14.109465 17.154092 19.938264
