LAMMPS (7 Feb 2024 - Update 1)
  using 1 OpenMP thread(s) per MPI task
# GCMC: 98.0% H₂ / 2.0% CH₄ at 60 bar, 298 K
units real
atom_style full
boundary p p p

read_data "structure.data"
Reading data file ...
  orthogonal box = (0 0 0) to (17.111 17.111 17.111)
  2 by 2 by 2 MPI processor grid
  reading atoms ...
  431 atoms
Finding 1-2 1-3 1-4 neighbors ...
  special bond factors lj:    0        0        0       
  special bond factors coul:  0        0        0       
     0 = max # of 1-2 neighbors
     0 = max # of 1-3 neighbors
     0 = max # of 1-4 neighbors
     1 = max # of special neighbors
  special bonds CPU = 0.000 seconds
  read_data CPU = 0.004 seconds

timestep 1.0

pair_style lj/cut/coul/long 12.0
kspace_style pppm 1e-5
pair_coeff 1 1 0.104924 3.431000  # C
pair_coeff 2 2 0.043997 2.571000  # H
pair_coeff 3 3 0.068956 3.261000  # N
pair_coeff 4 4 0.060014 3.118000  # O
pair_coeff 5 5 0.123962 2.462000  # Zn

# Gas parameters
pair_coeff 6 6 0.072930 2.958000
pair_coeff 7 7 0.294106 3.730000

pair_modify mix geometric tail yes

# Groups
group framework type 1:5
431 atoms in group framework
group h2 type 6
0 atoms in group h2
group ch4 type 7
0 atoms in group ch4
group gases type 6 7
0 atoms in group gases

# Freeze framework
fix freeze framework setforce 0.0 0.0 0.0

# Counting
compute type_counts all count/type atom
variable n_h2 equal c_type_counts[6]
variable n_ch4 equal c_type_counts[7]

# Temperature monitoring
compute temp_gases gases temp
compute_modify temp_gases dynamic yes

# Chemical potentials
variable mu_h2 equal 2.423137
variable mu_ch4 equal 0.106391

# Initialize framework at target temperature
velocity framework create 298 98765 dist gaussian
velocity framework scale 298

# GCMC
fix gcmc_h2 gases gcmc 1000 5 0 6 54321 298 ${mu_h2} 0.2
fix gcmc_h2 gases gcmc 1000 5 0 6 54321 298 2.423137 0.2
fix gcmc_ch4 gases gcmc 1000 5 0 7 12345 298 ${mu_ch4} 0.2
fix gcmc_ch4 gases gcmc 1000 5 0 7 12345 298 0.106391 0.2

print "[INFO] Equilibration Phase"
[INFO] Equilibration Phase
thermo_style custom step temp pe ke v_n_h2 v_n_ch4 vol
thermo 5000
run 100000
WARNING: No fixes with time integration, atoms won't move (src/verlet.cpp:60)
PPPM initialization ...
WARNING: System is not charge neutral, net charge = -3.9e-05 (src/kspace.cpp:327)
  using 12-bit tables for long-range coulomb (src/kspace.cpp:342)
  G vector (1/distance) = 0.22556977
  grid = 8 8 8
  stencil order = 5
  estimated absolute RMS force accuracy = 0.0016986276
  estimated relative force accuracy = 5.1153666e-06
  using double precision FFTW3
  3d grid and FFT values/proc = 729 64
Generated 21 of 21 mixed pair_coeff terms from geometric mixing rule
WARNING: Fix gcmc using full_energy option (src/MC/fix_gcmc.cpp:539)
0 atoms in group FixGCMC:gcmc_exclusion_group:gcmc_h2
WARNING: Fix gcmc using full_energy option (src/MC/fix_gcmc.cpp:539)
0 atoms in group FixGCMC:gcmc_exclusion_group:gcmc_ch4
WARNING: Neighbor exclusions used with KSpace solver may give inconsistent Coulombic energies (src/neighbor.cpp:651)
Neighbor list info ...
  update: every = 1 steps, delay = 0 steps, check = yes
  max neighbors/atom: 2000, page size: 100000
  master list distance cutoff = 14
  ghost atom cutoff = 14
  binsize = 7, bins = 3 3 3
  1 neighbor lists, perpetual/occasional/extra = 1 0 0
  (1) pair lj/cut/coul/long, perpetual
      attributes: half, newton on
      pair build: half/bin/newton
      stencil: half/bin/3d
      bin: standard
Per MPI rank memory allocation (min/avg/max) = 6.52 | 6.52 | 6.52 Mbytes
   Step          Temp          PotEng         KinEng         v_n_h2        v_n_ch4         Volume    
         0   298            3.3334374e+11  381.961        0              0              5009.8667    
      5000   300.06681      3.3334374e+11  384.61013      1              2              5009.8667    
     10000   301.47771      3.3334374e+11  386.41855      3              4              5009.8667    
     15000   301.47771      3.3334374e+11  386.41855      3              4              5009.8667    
     20000   302.8846       3.3334374e+11  388.22182      6              6              5009.8667    
     25000   304.78251      3.3334374e+11  390.65447      8              7              5009.8667    
     30000   304.78251      3.3334374e+11  390.65447      8              7              5009.8667    
     35000   304.78251      3.3334374e+11  390.65447      8              7              5009.8667    
     40000   305.68253      3.3334374e+11  391.80807      10             8              5009.8667    
     45000   306.8362       3.3334374e+11  393.28678      11             9              5009.8667    
     50000   310.15478      3.3334374e+11  397.54037      12             12             5009.8667    
     55000   312.5138       3.3334374e+11  400.56404      15             11             5009.8667    
     60000   311.77437      3.3334374e+11  399.61628      16             11             5009.8667    
     65000   313.04745      3.3334374e+11  401.24804      19             11             5009.8667    
     70000   314.31853      3.3334374e+11  402.87725      20             13             5009.8667    
     75000   314.83898      3.3334374e+11  403.54433      22             13             5009.8667    
     80000   315.96636      3.3334374e+11  404.98936      22             14             5009.8667    
     85000   317.39295      3.3334374e+11  406.81788      23             15             5009.8667    
     90000   317.39295      3.3334374e+11  406.81788      23             15             5009.8667    
     95000   318.90318      3.3334374e+11  408.75361      25             15             5009.8667    
    100000   320.70478      3.3334374e+11  411.06281      28             15             5009.8667    
Loop time of 60.8231 on 8 procs for 100000 steps with 474 atoms

Performance: 142.051 ns/day, 0.169 hours/ns, 1644.111 timesteps/s, 779.309 katom-step/s
91.5% CPU use with 8 MPI tasks x 1 OpenMP threads

MPI task timing breakdown:
Section |  min time  |  avg time  |  max time  |%varavg| %total
---------------------------------------------------------------
Pair    | 25.123     | 31.098     | 39.062     |  73.2 | 51.13
Bond    | 0.0038928  | 0.0042941  | 0.0051097  |   0.6 |  0.01
Kspace  | 6.4126     | 13.548     | 18.852     | 106.9 | 22.27
Neigh   | 0.090382   | 0.10405    | 0.12389    |   3.2 |  0.17
Comm    | 11.2       | 11.841     | 12.518     |  14.5 | 19.47
Output  | 0.0005279  | 0.00058879 | 0.0008105  |   0.0 |  0.00
Modify  | 2.8672     | 2.8703     | 2.8738     |   0.1 |  4.72
Other   |            | 1.356      |            |       |  2.23

Nlocal:          59.25 ave          70 max          52 min
Histogram: 1 0 3 0 0 3 0 0 0 1
Nghost:        4452.25 ave        4464 max        4441 min
Histogram: 1 1 0 2 0 0 1 2 0 1
Neighs:        32098.1 ave       39037 max       26328 min
Histogram: 1 1 0 1 3 0 1 0 0 1

Total # of neighbors = 256785
Ave neighs/atom = 541.74051
Ave special neighs/atom = 0
Neighbor list builds = 1297
Dangerous builds = 0

print "[INFO] Production Phase"
[INFO] Production Phase
run 100000
WARNING: No fixes with time integration, atoms won't move (src/verlet.cpp:60)
PPPM initialization ...
  using 12-bit tables for long-range coulomb (src/kspace.cpp:342)
  G vector (1/distance) = 0.22556891
  grid = 8 8 8
  stencil order = 5
  estimated absolute RMS force accuracy = 0.0016197717
  estimated relative force accuracy = 4.8778943e-06
  using double precision FFTW3
  3d grid and FFT values/proc = 729 64
Generated 21 of 21 mixed pair_coeff terms from geometric mixing rule
WARNING: Neighbor exclusions used with KSpace solver may give inconsistent Coulombic energies (src/neighbor.cpp:651)
Per MPI rank memory allocation (min/avg/max) = 6.654 | 6.654 | 6.654 Mbytes
   Step          Temp          PotEng         KinEng         v_n_h2        v_n_ch4         Volume    
    100000   291.5498       3.3334374e+11  411.06281      28             15             5009.8667    
    105000   291.5498       3.3334374e+11  411.06281      28             15             5009.8667    
    110000   291.5498       3.3334374e+11  411.06281      28             15             5009.8667    
    115000   291.5498       3.3334374e+11  411.06281      28             15             5009.8667    
    120000   292.40418      3.3334374e+11  412.26743      29             15             5009.8667    
    125000   292.40418      3.3334374e+11  412.26743      29             15             5009.8667    
    130000   292.40418      3.3334374e+11  412.26743      29             15             5009.8667    
    135000   292.78407      3.3334374e+11  412.80304      30             15             5009.8667    
    140000   292.40418      3.3334374e+11  412.26743      29             15             5009.8667    
    145000   294.3875       3.3334374e+11  415.06375      31             15             5009.8667    
    150000   294.23113      3.3334374e+11  414.84329      30             15             5009.8667    
    155000   294.23113      3.3334374e+11  414.84329      30             15             5009.8667    
    160000   293.60645      3.3334374e+11  413.96253      29             15             5009.8667    
    165000   293.18131      3.3334374e+11  413.36312      28             15             5009.8667    
    170000   293.18131      3.3334374e+11  413.36312      28             15             5009.8667    
    175000   293.18131      3.3334374e+11  413.36312      28             15             5009.8667    
    180000   293.3809       3.3334374e+11  413.64452      29             15             5009.8667    
    185000   293.3809       3.3334374e+11  413.64452      29             15             5009.8667    
    190000   293.7805       3.3334374e+11  414.20793      31             15             5009.8667    
    195000   293.7805       3.3334374e+11  414.20793      31             15             5009.8667    
    200000   293.7805       3.3334374e+11  414.20793      31             15             5009.8667    
Loop time of 67.4198 on 8 procs for 100000 steps with 477 atoms

Performance: 128.152 ns/day, 0.187 hours/ns, 1483.244 timesteps/s, 707.507 katom-step/s
92.1% CPU use with 8 MPI tasks x 1 OpenMP threads

MPI task timing breakdown:
Section |  min time  |  avg time  |  max time  |%varavg| %total
---------------------------------------------------------------
Pair    | 28.305     | 34.775     | 42.049     |  65.3 | 51.58
Bond    | 0.0040631  | 0.004371   | 0.0054844  |   0.7 |  0.01
Kspace  | 6.8347     | 14.524     | 20.824     | 105.4 | 21.54
Neigh   | 0.10222    | 0.11486    | 0.1337     |   2.7 |  0.17
Comm    | 12.813     | 13.379     | 13.626     |   7.1 | 19.84
Output  | 0.00053109 | 0.00060431 | 0.00082491 |   0.0 |  0.00
Modify  | 3.1178     | 3.1208     | 3.1268     |   0.1 |  4.63
Other   |            | 1.501      |            |       |  2.23

Nlocal:         59.625 ave          70 max          53 min
Histogram: 1 2 1 0 1 2 0 0 0 1
Nghost:           4474 ave        4482 max        4465 min
Histogram: 2 0 0 0 1 1 1 1 1 1
Neighs:        32519.2 ave       39306 max       26731 min
Histogram: 1 0 1 1 3 0 1 0 0 1

Total # of neighbors = 260154
Ave neighs/atom = 545.39623
Ave special neighs/atom = 0
Neighbor list builds = 1300
Dangerous builds = 0

print "[INFO] Final H2: ${n_h2}"
[INFO] Final H2: 31
print "[INFO] Final CH4: ${n_ch4}"
[INFO] Final CH4: 15
print "[INFO] Completed"
[INFO] Completed
Total wall time: 0:02:08
