# LAMMPS data file for MOF_0503
# Cell parameters: a=9.327 b=21.377 c=21.377
# Cell angles: alpha=90.0° beta=90.0° gamma=90.0°
# <<Zeo++>>
# Framework_density: 1.290577 g/cm3
# Accessible_surface_area: 648.860000 m2/g
# Void_fraction: 0.035820
# Accessible_volume: 0.027755 cm3/g
# Largest_included_sphere_diameter: 4.847080 A
# Largest_free_sphere_diameter: 2.742280 A
# Pore_limiting_diameter: 4.487510 A
# <<Zeo++>>
356 atoms
0 bonds
0 angles
0 dihedrals
0 impropers

7 atom types

0.0 9.327200 xlo xhi
0.0 21.377000 ylo yhi
0.0 21.377000 zlo zhi

Masses

1 12.011  # C
2 1.008  # H
3 14.007  # N
4 15.999  # O
5 65.380  # Zn
6 2.016  # H2 (GCMC insert - neutral charge)
7 16.043  # CH4 (GCMC insert - neutral charge)

Atoms  

1 1 5 0.789366 3.942794 21.311586 13.829636
2 1 5 0.789366 0.720806 0.065414 3.141136
3 1 5 0.789366 5.384406 10.623086 18.235864
4 1 5 0.789366 8.606394 10.753914 7.547364
5 1 2 0.128919 0.996705 20.098655 13.738570
6 1 2 0.128919 3.666895 1.278345 3.050070
7 1 2 0.128919 8.330495 9.410155 18.326930
8 1 2 0.128919 5.660305 11.966845 7.638430
9 1 2 0.120682 3.066130 0.091280 10.752631
10 1 2 0.120682 1.597470 21.285720 0.064131
11 1 2 0.120682 6.261070 10.779780 21.312869
12 1 2 0.120682 7.729730 10.597220 10.624369
13 1 2 0.128919 2.960080 20.735690 5.427407
14 1 2 0.128919 1.703520 0.641310 16.115907
15 1 2 0.128919 6.367120 10.047190 5.261093
16 1 2 0.128919 7.623680 11.329810 15.949593
17 1 2 0.120682 0.045423 18.487685 4.166377
18 1 2 0.120682 4.618177 2.889315 14.854877
19 1 2 0.120682 9.281777 7.799185 6.522123
20 1 2 0.120682 4.709023 13.577815 17.210623
21 1 2 0.120682 0.290076 17.654837 15.255482
22 1 2 0.120682 4.373524 3.722163 4.566982
23 1 2 0.120682 9.037124 6.966337 16.810018
24 1 2 0.120682 4.953676 14.410663 6.121518
25 1 2 0.100821 0.565322 14.376674 17.217250
26 1 2 0.100821 4.098278 7.000326 6.528750
27 1 2 0.100821 8.761878 3.688174 14.848250
28 1 2 0.100821 5.228922 17.688826 4.159750
29 1 2 0.128919 9.072381 18.856652 9.687629
30 1 2 0.128919 4.918419 2.520348 20.376129
31 1 2 0.128919 0.254819 8.168152 1.000871
32 1 2 0.128919 4.408781 13.208848 11.689371
33 1 2 0.120682 7.051456 17.790794 9.320800
34 1 2 0.120682 6.939344 3.586206 20.009300
35 1 2 0.120682 2.275744 7.102294 1.367700
36 1 2 0.120682 2.387856 14.274706 12.056200
37 1 2 0.128919 5.874457 18.737154 13.037405
38 1 2 0.128919 8.116343 2.639846 2.348905
39 1 2 0.128919 3.452743 8.048654 19.028095
40 1 2 0.128919 1.210857 13.328346 8.339595
41 1 2 0.128919 7.889226 19.801301 13.401241
42 1 2 0.128919 6.101574 1.575699 2.712741
43 1 2 0.128919 1.437974 9.112801 18.664259
44 1 2 0.128919 3.225626 12.264199 7.975759
45 1 2 0.120682 2.655081 16.590262 7.162150
46 1 2 0.120682 2.008519 4.786738 17.850650
47 1 2 0.120682 6.672119 5.901762 3.526350
48 1 2 0.120682 7.318681 15.475238 14.214850
49 1 2 0.120682 3.707189 16.063105 9.149142
50 1 2 0.120682 0.956411 5.313895 19.837642
51 1 2 0.120682 5.620011 5.374605 1.539358
52 1 2 0.120682 8.370789 16.002395 12.227858
53 1 2 0.150058 4.896780 19.895574 9.534570
54 1 2 0.150058 9.094020 1.481426 20.223070
55 1 2 0.150058 4.430420 9.207074 1.153930
56 1 2 0.150058 0.233180 12.169926 11.842430
57 1 2 0.138039 3.759888 20.437695 7.600379
58 1 2 0.138039 0.903712 0.939305 18.288879
59 1 2 0.138039 5.567312 9.749195 3.088121
60 1 2 0.138039 8.423488 11.627805 13.776621
61 1 2 0.120682 5.441768 16.098591 12.895461
62 1 2 0.120682 8.549032 5.278409 2.206961
63 1 2 0.120682 3.885432 5.410091 19.170039
64 1 2 0.120682 0.778168 15.966909 8.481539
65 1 2 0.128919 4.063395 15.528039 14.652223
66 1 2 0.128919 0.600205 5.848961 3.963723
67 1 2 0.128919 5.263805 4.839539 17.413277
68 1 2 0.128919 8.726995 16.537461 6.724777
69 1 2 0.112154 1.001088 17.356628 12.827910
70 1 2 0.112154 3.662512 4.020372 2.139410
71 1 2 0.112154 8.326112 6.668128 19.237590
72 1 2 0.112154 5.664688 14.708872 8.549090
73 1 2 0.120682 2.399329 18.030644 11.120102
74 1 2 0.120682 2.264271 3.346356 0.431602
75 1 2 0.120682 6.927871 7.342144 20.945398
76 1 2 0.120682 7.062929 14.034856 10.256898
77 1 2 0.112154 7.946868 1.132340 13.732585
78 1 2 0.112154 6.043932 20.244660 3.044085
79 1 2 0.112154 1.380332 11.820840 18.332915
80 1 2 0.112154 3.283268 9.556160 7.644415
81 1 2 0.112154 0.739460 2.056895 13.547032
82 1 2 0.112154 3.924140 19.320105 2.858532
83 1 2 0.112154 8.587740 12.745395 18.518468
84 1 2 0.112154 5.403060 8.631605 7.829968
85 1 2 0.112154 9.249225 3.114843 9.771213
86 1 2 0.112154 4.741575 18.262157 20.459713
87 1 2 0.112154 0.077975 13.803343 0.917287
88 1 2 0.112154 4.585625 7.573657 11.605787
89 1 2 0.120682 7.138293 2.228552 9.988403
90 1 2 0.120682 6.852507 19.148448 20.676903
91 1 2 0.120682 2.188907 12.917052 0.700097
92 1 2 0.120682 2.474693 8.459948 11.388597
93 1 2 0.112154 6.891308 7.001395 14.722981
94 1 2 0.112154 7.099492 14.375605 4.034481
95 1 2 0.112154 2.435892 17.689895 17.342519
96 1 2 0.112154 2.227708 3.687105 6.654019
97 1 2 0.112154 6.150542 5.459044 13.196022
98 1 2 0.112154 7.840258 15.917956 2.507522
99 1 2 0.120682 3.176658 16.147544 18.869478
100 1 2 0.112154 1.486942 5.229456 8.180978
101 1 2 0.120682 2.364072 6.143322 14.355511
102 1 2 0.120682 2.299528 15.233678 3.667011
103 1 2 0.120682 6.963128 16.831822 17.709989
104 1 2 0.120682 7.027672 4.545178 7.021489
105 1 2 0.120682 3.115378 7.633299 15.943822
106 1 2 0.120682 1.548222 13.743701 5.255322
107 1 2 0.120682 6.211822 18.321799 16.121678
108 1 2 0.120682 7.778978 3.055201 5.433178
109 1 2 0.112154 5.258489 4.928467 11.265893
110 1 2 0.112154 8.732311 16.448533 0.577393
111 1 2 0.112154 4.068711 15.616967 20.799607
112 1 2 0.112154 0.594889 5.760033 10.111107
113 1 2 0.120682 4.432659 3.676416 9.510627
114 1 2 0.120682 0.230941 17.700584 20.199127
115 1 2 0.120682 4.894541 14.364916 1.177873
116 1 2 0.120682 9.096259 7.012084 11.866373
117 1 2 0.120682 2.362860 2.660795 9.686346
118 1 2 0.120682 2.300740 18.716205 20.374846
119 1 2 0.120682 6.964340 13.349295 1.002154
120 1 2 0.120682 7.026460 8.027705 11.690654
121 1 2 0.112154 1.922709 4.203573 13.346302
122 1 2 0.112154 2.740891 17.173427 2.657802
123 1 2 0.112154 7.404491 14.892073 18.719198
124 1 2 0.112154 6.586309 6.484927 8.030698
125 1 1 0.067273 1.274096 20.335726 12.883063
126 1 1 0.067273 3.389504 1.041274 2.194563
127 1 1 0.067273 8.053104 9.647226 19.182437
128 1 1 0.067273 5.937696 11.729774 8.493937
129 1 1 0.150058 2.382167 21.071950 11.242378
130 1 1 0.150058 2.281433 0.305050 0.553878
131 1 1 0.150058 6.945033 10.383450 20.823122
132 1 1 0.150058 7.045767 10.993550 10.134622
133 1 1 0.090762 2.350454 20.040937 5.323942
134 1 1 0.090762 2.313146 1.336062 16.012442
135 1 1 0.090762 6.976746 9.352437 5.364558
136 1 1 0.090762 7.014054 12.024563 16.053058
137 1 1 0.150058 0.771359 18.789955 4.663179
138 1 1 0.150058 3.892241 2.587045 15.351679
139 1 1 0.150058 8.555841 8.101455 6.025321
140 1 1 0.150058 5.434959 13.275545 16.713821
141 1 1 0.090762 0.557767 16.815148 15.553905
142 1 1 0.090762 4.105833 4.561852 4.865405
143 1 1 0.090762 8.769433 6.126648 16.511595
144 1 1 0.090762 5.221367 15.250352 5.823095
145 1 1 0.128919 0.732185 15.045133 16.592827
146 1 1 0.128919 3.931415 6.331867 5.904327
147 1 1 0.128919 8.595015 4.356633 15.472673
148 1 1 0.128919 5.395785 17.020367 4.784173
149 1 1 0.120682 8.664969 19.457132 11.577569
150 1 1 0.120682 5.325831 1.919868 0.889069
151 1 1 0.120682 0.662231 8.768632 20.487931
152 1 1 0.120682 4.001369 12.608368 9.799431
153 1 1 -0.160130 8.424327 18.842543 10.354591
154 1 1 -0.160130 5.566473 2.534457 21.043091
155 1 1 -0.160130 0.902873 8.154043 0.333909
156 1 1 -0.160130 3.760727 13.222957 11.022409
157 1 1 -0.171254 7.211791 18.207860 10.136332
158 1 1 -0.171254 6.779009 3.169140 20.824832
159 1 1 -0.171254 2.115409 7.519360 0.552168
160 1 1 -0.171254 2.548191 13.857640 11.240668
161 1 1 0.180374 6.226839 18.187552 11.126728
162 1 1 0.180374 7.763961 3.189448 0.438229
163 1 1 0.180374 3.100361 7.499052 20.938772
164 1 1 0.180374 1.563239 13.877948 10.250271
165 1 1 -0.171254 6.506655 18.772854 12.356334
166 1 1 -0.171254 7.484145 2.604146 1.667834
167 1 1 -0.171254 2.820545 8.084354 19.709166
168 1 1 -0.171254 1.843055 13.292646 9.020666
169 1 1 -0.171254 7.715460 19.407323 12.576944
170 1 1 -0.171254 6.275340 1.969677 1.888444
171 1 1 -0.171254 1.611740 8.718823 19.488556
172 1 1 -0.171254 3.051860 12.658177 8.800056
173 1 1 0.128919 3.075178 18.577254 7.222006
174 1 1 0.128919 1.588422 2.799746 17.910506
175 1 1 0.128919 6.252022 7.888754 3.466494
176 1 1 0.128919 7.738778 13.488246 14.154994
177 1 1 -0.160130 3.078909 17.251880 7.659593
178 1 1 -0.160130 1.584691 4.125120 18.348093
179 1 1 -0.160130 6.248291 6.563380 3.028907
180 1 1 -0.160130 7.742509 14.813620 13.717407
181 1 1 -0.178151 3.716889 16.937852 8.833618
182 1 1 -0.178151 0.946711 4.439148 19.522118
183 1 1 -0.178151 5.610311 6.249352 1.854882
184 1 1 -0.178151 8.380489 15.127648 12.543382
185 1 1 0.174918 4.380986 17.933807 9.553809
186 1 1 0.174918 0.282614 3.443193 20.242309
187 1 1 0.174918 4.946214 7.245307 1.134691
188 1 1 0.174918 9.044586 14.131693 11.823191
189 1 1 -0.160130 4.421093 19.242934 9.073468
190 1 1 -0.160130 0.242507 2.134066 19.761968
191 1 1 -0.160130 4.906107 8.554434 1.615032
192 1 1 -0.160130 9.084693 12.822566 12.303532
193 1 1 -0.160130 3.754198 19.562948 7.916117
194 1 1 -0.160130 0.909402 1.814052 18.604617
195 1 1 -0.160130 5.573002 8.874448 2.772383
196 1 1 -0.160130 8.417798 12.502552 13.460883
197 1 1 0.189829 4.092775 17.178130 11.848844
198 1 1 0.189829 0.570825 4.198870 1.160344
199 1 1 0.189829 5.234425 6.489630 20.216656
200 1 1 0.189829 8.756375 14.887370 9.528156
201 1 1 -0.171254 4.558203 16.388250 12.898882
202 1 1 -0.171254 0.105397 4.988750 2.210382
203 1 1 -0.171254 4.768997 5.699750 19.166618
204 1 1 -0.171254 9.221803 15.677250 8.478118
205 1 1 -0.147759 3.731813 16.028475 13.941866
206 1 1 -0.147759 0.931787 5.348525 3.253366
207 1 1 -0.147759 5.595387 5.339975 18.123634
208 1 1 -0.147759 8.395413 16.037025 7.435134
209 1 1 0.128919 2.401754 16.420315 13.921130
210 1 1 0.128919 2.261846 4.956685 3.232630
211 1 1 0.128919 6.925446 5.731815 18.144370
212 1 1 0.128919 7.065354 15.645185 7.455870
213 1 1 -0.171254 1.904614 17.136658 12.855700
214 1 1 -0.171254 2.758986 4.240342 2.167200
215 1 1 -0.171254 7.422586 6.448158 19.209800
216 1 1 -0.171254 6.568214 14.928842 8.521300
217 1 1 -0.178151 2.738466 17.530636 11.827253
218 1 1 -0.178151 1.925134 3.846364 1.138753
219 1 1 -0.178151 6.588734 6.842136 20.238247
220 1 1 -0.178151 7.402066 14.534864 9.549747
221 1 1 0.555738 5.926503 0.978425 11.983946
222 1 1 0.555738 8.064297 20.398575 1.295446
223 1 1 0.555738 3.400697 11.666925 20.081554
224 1 1 0.555738 1.262903 9.710075 9.393054
225 1 1 0.551195 5.591656 8.559778 16.448746
226 1 1 0.551195 8.399144 12.817222 5.760246
227 1 1 0.551195 3.735544 19.248278 15.616754
228 1 1 0.551195 0.928056 2.128722 4.928254
229 1 1 -0.022826 7.305063 1.609261 11.886253
230 1 1 -0.022826 6.685737 19.767739 1.197753
231 1 1 -0.022826 2.022137 12.297761 20.179247
232 1 1 -0.022826 2.641463 9.079239 9.490747
233 1 1 -0.122061 8.199542 1.547695 12.939498
234 1 1 -0.122061 5.791258 19.829305 2.250998
235 1 1 -0.122061 1.127658 12.236195 19.126002
236 1 1 -0.122061 3.535942 9.140805 8.437502
237 1 1 -0.171254 0.152966 2.100290 12.826200
238 1 1 -0.171254 4.510634 19.276710 2.137700
239 1 1 -0.171254 9.174234 12.788790 19.239300
240 1 1 -0.171254 4.816566 8.588210 8.550800
241 1 1 0.076546 0.556834 2.715307 11.644052
242 1 1 0.076546 4.106766 18.661693 0.955552
243 1 1 0.076546 8.770366 13.403807 20.421448
244 1 1 0.076546 5.220434 7.973193 9.732948
245 1 1 -0.138363 8.992354 2.734118 10.579477
246 1 1 -0.138363 4.998446 18.642882 21.267977
247 1 1 -0.138363 0.334846 13.422618 0.109023
248 1 1 -0.138363 4.328754 7.954382 10.797523
249 1 1 -0.101329 7.722922 2.195418 10.712015
250 1 1 -0.101329 6.267878 19.181582 0.023515
251 1 1 -0.101329 1.604278 12.883918 21.353485
252 1 1 -0.101329 3.059322 8.493082 10.664985
253 1 1 -0.027936 5.088920 7.533896 15.468611
254 1 1 -0.027936 8.901880 13.843104 4.780111
255 1 1 -0.027936 4.238280 18.222396 16.596889
256 1 1 -0.027936 0.425320 3.154604 5.908389
257 1 1 -0.101329 5.978735 6.838502 14.646452
258 1 1 -0.101329 8.012065 14.538498 3.957952
259 1 1 -0.101329 3.348465 17.527002 17.419048
260 1 1 -0.101329 1.315135 3.849998 6.730548
261 1 1 -0.160130 5.533828 5.913520 13.722965
262 1 1 -0.160130 8.456972 15.463480 3.034465
263 1 1 -0.160130 3.793372 16.602020 18.342535
264 1 1 -0.160130 0.870228 4.774980 7.654035
265 1 1 0.067273 4.156200 5.648231 13.566913
266 1 1 0.067273 0.507400 15.728769 2.878413
267 1 1 0.067273 5.171000 16.336731 18.498587
268 1 1 0.067273 8.819800 5.040269 7.810087
269 1 1 -0.147759 3.275713 6.314766 14.423062
270 1 1 -0.147759 1.387887 15.062234 3.734562
271 1 1 -0.147759 6.051487 17.003266 17.642438
272 1 1 -0.147759 7.939313 4.373734 6.953938
273 1 1 -0.101329 3.723418 7.225426 15.370704
274 1 1 -0.101329 0.940182 14.151574 4.682204
275 1 1 -0.101329 5.603782 17.913926 16.694796
276 1 1 -0.101329 8.387018 3.463074 6.006296
277 1 1 0.076546 3.675850 4.729234 12.494643
278 1 1 0.076546 0.987750 16.647766 1.806143
279 1 1 0.076546 5.651350 15.417734 19.570857
280 1 1 0.076546 8.339450 5.959266 8.882357
281 1 1 -0.147759 4.416429 4.538337 11.337078
282 1 1 -0.147759 0.247171 16.838663 0.648578
283 1 1 -0.147759 4.910771 15.226837 20.728422
284 1 1 -0.147759 9.080029 6.150163 10.039922
285 1 1 -0.074790 3.927684 3.781591 10.284475
286 1 1 -0.074790 0.735916 17.595409 20.972975
287 1 1 -0.074790 5.399516 14.470091 0.404025
288 1 1 -0.074790 8.591284 6.906909 11.092525
289 1 1 -0.147759 2.683435 3.178760 10.389222
290 1 1 -0.147759 1.980165 18.198240 21.077722
291 1 1 -0.147759 6.643765 13.867260 0.299278
292 1 1 -0.147759 7.347035 7.509740 10.987778
293 1 1 0.076546 1.909278 3.340370 11.531395
294 1 1 0.076546 2.754322 18.036630 0.842895
295 1 1 0.076546 7.417922 14.028870 20.534105
296 1 1 0.076546 6.572878 7.348130 9.845605
297 1 1 -0.197416 2.426005 4.104170 12.570745
298 1 1 -0.197416 2.237595 17.272830 1.882245
299 1 1 -0.197416 6.901195 14.792670 19.494755
300 1 1 -0.197416 7.089605 6.584330 8.806255
301 1 3 -0.317601 2.431601 20.927228 12.576303
302 1 3 -0.317601 2.231999 0.449772 1.887803
303 1 3 -0.317601 6.895599 10.238728 19.489197
304 1 3 -0.317601 7.095201 11.138272 8.800697
305 1 3 0.128919 0.582017 20.141623 11.761839
306 1 3 0.128919 4.081583 1.235377 1.073339
307 1 3 0.128919 8.745183 9.453123 20.303661
308 1 3 0.128919 5.245617 11.923877 9.615161
309 1 3 -0.241247 1.286221 20.607214 10.687217
310 1 3 -0.241247 3.377379 0.769786 21.375717
311 1 3 -0.241247 8.040979 9.918714 0.001283
312 1 3 -0.241247 5.949821 11.458286 10.689783
313 1 3 -0.317601 1.383224 19.999252 4.421619
314 1 3 -0.317601 3.280376 1.377748 15.110119
315 1 3 -0.317601 7.943976 9.310752 6.266881
316 1 3 -0.317601 6.046824 12.066248 16.955381
317 1 3 0.128919 2.314078 18.931471 6.061021
318 1 3 0.128919 2.349522 2.445529 16.749521
319 1 3 0.128919 7.013122 8.242971 4.627479
320 1 3 0.128919 6.977678 13.134029 15.315979
321 1 3 -0.241247 1.291817 18.095630 5.650155
322 1 3 -0.241247 3.371783 3.281369 16.338655
323 1 3 -0.241247 8.035383 7.407130 5.038345
324 1 3 -0.241247 5.955417 13.969869 15.726845
325 1 3 -0.345687 0.021453 16.184527 16.580001
326 1 3 -0.345687 4.642147 5.192473 5.891501
327 1 3 -0.345687 9.305747 5.496027 15.485499
328 1 3 -0.345687 4.685053 15.880973 4.796999
329 1 3 0.112154 1.547382 16.083413 14.996607
330 1 3 0.112154 3.116218 5.293587 4.308107
331 1 3 0.120682 7.779818 5.394913 17.068893
332 1 3 0.112154 6.210982 15.982087 6.380393
333 1 3 -0.258265 1.686358 14.916871 15.675754
334 1 3 -0.258265 2.977242 6.460129 4.987254
335 1 3 -0.258265 7.640842 4.228371 16.389746
336 1 3 -0.258265 6.349958 17.148629 5.701246
337 1 3 -0.178151 4.965801 17.608449 10.827664
338 1 3 -0.178151 9.024999 3.768551 0.139164
339 1 3 -0.178151 4.361399 6.919949 21.237836
340 1 3 -0.178151 0.302201 14.457051 10.549336
341 1 4 -0.558384 5.528231 0.824938 13.200725
342 1 4 -0.558384 8.462569 20.552062 2.512225
343 1 4 -0.558384 3.798969 11.513438 18.864775
344 1 4 -0.558384 0.864631 9.863562 8.176275
345 1 4 -0.533052 5.319302 0.634897 10.997184
346 1 4 -0.533052 8.671498 20.742103 0.308684
347 1 4 -0.533052 4.007898 11.323397 21.068316
348 1 4 -0.533052 0.655702 10.053603 10.379816
349 1 4 -0.554150 4.700909 9.093990 17.212760
350 1 4 -0.554150 9.289891 12.283010 6.524260
351 1 4 -0.554150 4.626291 19.782490 14.852740
352 1 4 -0.554150 0.037309 1.594510 4.164240
353 1 4 -0.589191 6.792067 8.870814 16.468413
354 1 4 -0.589191 7.198733 12.506186 5.779913
355 1 4 -0.589191 2.535133 19.559314 15.597087
356 1 4 -0.589191 2.128467 1.817686 4.908587
