LAMMPS (7 Feb 2024 - Update 1)
  using 1 OpenMP thread(s) per MPI task
# GCMC: 65.0% H₂ / 35.0% CH₄ at 25 bar, 298 K
units real
atom_style full
boundary p p p

read_data "structure.data"
Reading data file ...
  orthogonal box = (0 0 0) to (12.4868 13.0255 23.7555)
  2 by 2 by 2 MPI processor grid
  reading atoms ...
  220 atoms
Finding 1-2 1-3 1-4 neighbors ...
  special bond factors lj:    0        0        0       
  special bond factors coul:  0        0        0       
     0 = max # of 1-2 neighbors
     0 = max # of 1-3 neighbors
     0 = max # of 1-4 neighbors
     1 = max # of special neighbors
  special bonds CPU = 0.000 seconds
  read_data CPU = 0.004 seconds

timestep 1.0

pair_style lj/cut/coul/long 12.0
kspace_style pppm 1e-5
pair_coeff 1 1 0.104924 3.431000  # C
pair_coeff 2 2 0.043997 2.571000  # H
pair_coeff 3 3 0.060014 3.118000  # O
pair_coeff 4 4 0.401713 3.826000  # Si
pair_coeff 5 5 0.123962 2.462000  # Zn

# Gas parameters
pair_coeff 6 6 0.072930 2.958000
pair_coeff 7 7 0.294106 3.730000

pair_modify mix geometric tail yes

# Groups
group framework type 1:5
220 atoms in group framework
group h2 type 6
0 atoms in group h2
group ch4 type 7
0 atoms in group ch4
group gases type 6 7
0 atoms in group gases

# Freeze framework
fix freeze framework setforce 0.0 0.0 0.0

# Counting
compute type_counts all count/type atom
variable n_h2 equal c_type_counts[6]
variable n_ch4 equal c_type_counts[7]

# Temperature monitoring
compute temp_gases gases temp
compute_modify temp_gases dynamic yes

# Chemical potentials
variable mu_h2 equal 1.653801
variable mu_ch4 equal 1.273053

# Initialize framework at target temperature
velocity framework create 298 98765 dist gaussian
velocity framework scale 298

# GCMC
fix gcmc_h2 gases gcmc 1000 5 0 6 54321 298 ${mu_h2} 0.2
fix gcmc_h2 gases gcmc 1000 5 0 6 54321 298 1.653801 0.2
fix gcmc_ch4 gases gcmc 1000 5 0 7 12345 298 ${mu_ch4} 0.2
fix gcmc_ch4 gases gcmc 1000 5 0 7 12345 298 1.273053 0.2

print "[INFO] Equilibration Phase"
[INFO] Equilibration Phase
thermo_style custom step temp pe ke v_n_h2 v_n_ch4 vol
thermo 5000
run 100000
WARNING: No fixes with time integration, atoms won't move (src/verlet.cpp:60)
PPPM initialization ...
  using 12-bit tables for long-range coulomb (src/kspace.cpp:342)
  G vector (1/distance) = 0.2398017
  grid = 8 8 12
  stencil order = 5
  estimated absolute RMS force accuracy = 0.001943865
  estimated relative force accuracy = 5.8538919e-06
  using double precision FFTW3
  3d grid and FFT values/proc = 1573 128
Generated 21 of 21 mixed pair_coeff terms from geometric mixing rule
WARNING: Fix gcmc using full_energy option (src/MC/fix_gcmc.cpp:539)
0 atoms in group FixGCMC:gcmc_exclusion_group:gcmc_h2
WARNING: Fix gcmc using full_energy option (src/MC/fix_gcmc.cpp:539)
0 atoms in group FixGCMC:gcmc_exclusion_group:gcmc_ch4
WARNING: Neighbor exclusions used with KSpace solver may give inconsistent Coulombic energies (src/neighbor.cpp:651)
Neighbor list info ...
  update: every = 1 steps, delay = 0 steps, check = yes
  max neighbors/atom: 2000, page size: 100000
  master list distance cutoff = 14
  ghost atom cutoff = 14
  binsize = 7, bins = 2 2 4
  1 neighbor lists, perpetual/occasional/extra = 1 0 0
  (1) pair lj/cut/coul/long, perpetual
      attributes: half, newton on
      pair build: half/bin/newton
      stencil: half/bin/3d
      bin: standard
Per MPI rank memory allocation (min/avg/max) = 6.526 | 6.528 | 6.53 Mbytes
   Step          Temp          PotEng         KinEng         v_n_h2        v_n_ch4         Volume    
         0   298            18251661       194.53363      0              0              3863.7564    
      5000   304.8536       18251664       199.00764      2              3              3863.7564    
     10000   308.6613       18251663       201.49329      4              4              3863.7564    
     15000   312.41342      18251663       203.94267      7              4              3863.7564    
     20000   315.32834      18251651       205.84552      8              7              3863.7564    
     25000   319.92317      18251654       208.84501      9              7              3863.7564    
     30000   319.92317      18251654       208.84501      9              7              3863.7564    
     35000   325.51888      18251660       212.49788      10             8              3863.7564    
     40000   322.91485      18251654       210.79798      10             8              3863.7564    
     45000   323.83307      18251652       211.39739      11             8              3863.7564    
     50000   326.88984      18251657       213.39284      12             8              3863.7564    
     55000   326.88984      18251657       213.39284      12             8              3863.7564    
     60000   326.88984      18251657       213.39284      12             8              3863.7564    
     65000   327.57399      18251657       213.83945      13             8              3863.7564    
     70000   327.57399      18251657       213.83945      13             8              3863.7564    
     75000   328.56663      18251659       214.48744      14             8              3863.7564    
     80000   332.59283      18251659       217.11574      16             7              3863.7564    
     85000   332.69156      18251659       217.18018      17             7              3863.7564    
     90000   332.69156      18251659       217.18018      17             7              3863.7564    
     95000   334.28101      18251657       218.21778      17             8              3863.7564    
    100000   334.28101      18251657       218.21778      17             8              3863.7564    
Loop time of 37.61 on 8 procs for 100000 steps with 245 atoms

Performance: 229.726 ns/day, 0.104 hours/ns, 2658.867 timesteps/s, 651.423 katom-step/s
88.9% CPU use with 8 MPI tasks x 1 OpenMP threads

MPI task timing breakdown:
Section |  min time  |  avg time  |  max time  |%varavg| %total
---------------------------------------------------------------
Pair    | 5.1993     | 9.7297     | 15.163     | 118.6 | 25.87
Bond    | 0.0034235  | 0.0037966  | 0.0048103  |   0.7 |  0.01
Kspace  | 8.7767     | 14.801     | 20.047     | 100.0 | 39.35
Neigh   | 0.023161   | 0.03567    | 0.049932   |   5.6 |  0.09
Comm    | 8.6649     | 10.108     | 11.171     |  27.1 | 26.88
Output  | 0.00047615 | 0.00061949 | 0.00073896 |   0.0 |  0.00
Modify  | 1.5434     | 1.5506     | 1.5553     |   0.4 |  4.12
Other   |            | 1.38       |            |       |  3.67

Nlocal:         30.625 ave          40 max          20 min
Histogram: 2 0 2 0 0 0 0 0 0 4
Nghost:         2944.5 ave        2993 max        2899 min
Histogram: 3 1 0 0 0 0 0 1 1 2
Neighs:        11100.5 ave       16221 max        6730 min
Histogram: 3 0 0 0 1 0 2 0 0 2

Total # of neighbors = 88804
Ave neighs/atom = 362.46531
Ave special neighs/atom = 0
Neighbor list builds = 1297
Dangerous builds = 0

print "[INFO] Production Phase"
[INFO] Production Phase
run 100000
WARNING: No fixes with time integration, atoms won't move (src/verlet.cpp:60)
PPPM initialization ...
  using 12-bit tables for long-range coulomb (src/kspace.cpp:342)
  G vector (1/distance) = 0.23980113
  grid = 8 8 12
  stencil order = 5
  estimated absolute RMS force accuracy = 0.0018420413
  estimated relative force accuracy = 5.5472527e-06
  using double precision FFTW3
  3d grid and FFT values/proc = 1573 128
Generated 21 of 21 mixed pair_coeff terms from geometric mixing rule
WARNING: Neighbor exclusions used with KSpace solver may give inconsistent Coulombic energies (src/neighbor.cpp:651)
Per MPI rank memory allocation (min/avg/max) = 6.655 | 6.657 | 6.658 Mbytes
   Step          Temp          PotEng         KinEng         v_n_h2        v_n_ch4         Volume    
    100000   300.03091      18251657       218.21778      17             8              3863.7564    
    105000   301.00198      18251650       218.92405      18             8              3863.7564    
    110000   302.77123      18251651       220.21086      19             8              3863.7564    
    115000   303.7783       18251653       220.94332      19             9              3863.7564    
    120000   303.4235       18251647       220.68527      18             9              3863.7564    
    125000   307.31825      18251646       223.51799      18             10             3863.7564    
    130000   307.31825      18251646       223.51799      18             10             3863.7564    
    135000   307.31825      18251646       223.51799      18             10             3863.7564    
    140000   307.31825      18251646       223.51799      18             10             3863.7564    
    145000   307.31825      18251646       223.51799      18             10             3863.7564    
    150000   307.31825      18251646       223.51799      18             10             3863.7564    
    155000   307.31825      18251646       223.51799      18             10             3863.7564    
    160000   306.28323      18251642       222.7652       18             10             3863.7564    
    165000   307.24505      18251641       223.46475      19             10             3863.7564    
    170000   307.24505      18251641       223.46475      19             10             3863.7564    
    175000   307.24505      18251641       223.46475      19             10             3863.7564    
    180000   307.24505      18251641       223.46475      19             10             3863.7564    
    185000   307.24505      18251641       223.46475      19             10             3863.7564    
    190000   307.26513      18251644       223.47936      20             10             3863.7564    
    195000   307.9583       18251645       223.98351      21             10             3863.7564    
    200000   310.52586      18251645       225.85094      22             10             3863.7564    
Loop time of 40.618 on 8 procs for 100000 steps with 252 atoms

Performance: 212.714 ns/day, 0.113 hours/ns, 2461.965 timesteps/s, 620.415 katom-step/s
87.5% CPU use with 8 MPI tasks x 1 OpenMP threads

MPI task timing breakdown:
Section |  min time  |  avg time  |  max time  |%varavg| %total
---------------------------------------------------------------
Pair    | 6.3783     | 10.662     | 16.06      | 109.3 | 26.25
Bond    | 0.0034918  | 0.0039146  | 0.0046447  |   0.6 |  0.01
Kspace  | 9.2457     | 14.831     | 20.68      |  99.2 | 36.51
Neigh   | 0.028207   | 0.038982   | 0.051945   |   4.8 |  0.10
Comm    | 10.21      | 12.025     | 13.635     |  29.6 | 29.60
Output  | 0.00047514 | 0.00058416 | 0.00066971 |   0.0 |  0.00
Modify  | 1.7333     | 1.7396     | 1.7465     |   0.4 |  4.28
Other   |            | 1.316      |            |       |  3.24

Nlocal:           31.5 ave          40 max          22 min
Histogram: 2 0 2 0 0 0 0 0 1 3
Nghost:        3026.12 ave        3071 max        2981 min
Histogram: 3 0 1 0 0 0 0 1 0 3
Neighs:        11751.6 ave       16701 max        7406 min
Histogram: 2 1 0 0 1 2 0 0 0 2

Total # of neighbors = 94013
Ave neighs/atom = 373.06746
Ave special neighs/atom = 0
Neighbor list builds = 1300
Dangerous builds = 0

print "[INFO] Final H2: ${n_h2}"
[INFO] Final H2: 22
print "[INFO] Final CH4: ${n_ch4}"
[INFO] Final CH4: 10
print "[INFO] Completed"
[INFO] Completed
Total wall time: 0:01:18
