LAMMPS (7 Feb 2024 - Update 1)
  using 1 OpenMP thread(s) per MPI task
# GCMC: 90.0% H₂ / 10.0% CH₄ at 50 bar, 298 K
units real
atom_style full
boundary p p p

read_data "structure.data"
Reading data file ...
  orthogonal box = (0 0 0) to (16.117 31.104 41.896)
  1 by 2 by 4 MPI processor grid
  reading atoms ...
  720 atoms
Finding 1-2 1-3 1-4 neighbors ...
  special bond factors lj:    0        0        0       
  special bond factors coul:  0        0        0       
     0 = max # of 1-2 neighbors
     0 = max # of 1-3 neighbors
     0 = max # of 1-4 neighbors
     1 = max # of special neighbors
  special bonds CPU = 0.001 seconds
  read_data CPU = 0.005 seconds

timestep 1.0

pair_style lj/cut/coul/long 12.0
kspace_style pppm 1e-5
pair_coeff 1 1 0.104924 3.431000  # C
pair_coeff 2 2 0.012996 2.594000  # Fe
pair_coeff 3 3 0.043997 2.571000  # H
pair_coeff 4 4 0.598566 3.976000  # In
pair_coeff 5 5 0.068956 3.261000  # N
pair_coeff 6 6 0.060014 3.118000  # O

# Gas parameters
pair_coeff 7 7 0.072930 2.958000
pair_coeff 8 8 0.294106 3.730000

pair_modify mix geometric tail yes

# Groups
group framework type 1:6
720 atoms in group framework
group h2 type 7
0 atoms in group h2
group ch4 type 8
0 atoms in group ch4
group gases type 7 8
0 atoms in group gases

# Freeze framework
fix freeze framework setforce 0.0 0.0 0.0

# Counting
compute type_counts all count/type atom
variable n_h2 equal c_type_counts[7]
variable n_ch4 equal c_type_counts[8]

# Temperature monitoring
compute temp_gases gases temp
compute_modify temp_gases dynamic yes

# Chemical potentials
variable mu_h2 equal 2.262132
variable mu_ch4 equal 0.946536

# Initialize framework at target temperature
velocity framework create 298 98765 dist gaussian
velocity framework scale 298

# GCMC
fix gcmc_h2 gases gcmc 1000 5 0 7 54321 298 ${mu_h2} 0.2
fix gcmc_h2 gases gcmc 1000 5 0 7 54321 298 2.262132 0.2
fix gcmc_ch4 gases gcmc 1000 5 0 8 12345 298 ${mu_ch4} 0.2
fix gcmc_ch4 gases gcmc 1000 5 0 8 12345 298 0.946536 0.2

print "[INFO] Equilibration Phase"
[INFO] Equilibration Phase
thermo_style custom step temp pe ke v_n_h2 v_n_ch4 vol
thermo 5000
run 100000
WARNING: No fixes with time integration, atoms won't move (src/verlet.cpp:60)
PPPM initialization ...
WARNING: System is not charge neutral, net charge = 4.8e-05 (src/kspace.cpp:327)
  using 12-bit tables for long-range coulomb (src/kspace.cpp:342)
  G vector (1/distance) = 0.23433011
  grid = 10 16 20
  stencil order = 5
  estimated absolute RMS force accuracy = 0.0025726427
  estimated relative force accuracy = 7.7474371e-06
  using double precision FFTW3
  3d grid and FFT values/proc = 2550 480
Generated 28 of 28 mixed pair_coeff terms from geometric mixing rule
WARNING: Fix gcmc using full_energy option (src/MC/fix_gcmc.cpp:539)
0 atoms in group FixGCMC:gcmc_exclusion_group:gcmc_h2
WARNING: Fix gcmc using full_energy option (src/MC/fix_gcmc.cpp:539)
0 atoms in group FixGCMC:gcmc_exclusion_group:gcmc_ch4
WARNING: Neighbor exclusions used with KSpace solver may give inconsistent Coulombic energies (src/neighbor.cpp:651)
Neighbor list info ...
  update: every = 1 steps, delay = 0 steps, check = yes
  max neighbors/atom: 2000, page size: 100000
  master list distance cutoff = 14
  ghost atom cutoff = 14
  binsize = 7, bins = 3 5 6
  1 neighbor lists, perpetual/occasional/extra = 1 0 0
  (1) pair lj/cut/coul/long, perpetual
      attributes: half, newton on
      pair build: half/bin/newton
      stencil: half/bin/3d
      bin: standard
Per MPI rank memory allocation (min/avg/max) = 6.673 | 6.677 | 6.681 Mbytes
   Step          Temp          PotEng         KinEng         v_n_h2        v_n_ch4         Volume    
         0   298            inf            638.67432      0              0              21002.598    
      5000   298            inf            638.67432      0              0              21002.598    
     10000   298            inf            638.67432      0              0              21002.598    
     15000   298            inf            638.67432      0              0              21002.598    
     20000   298            inf            638.67432      0              0              21002.598    
     25000   298            inf            638.67432      0              0              21002.598    
     30000   298            inf            638.67432      0              0              21002.598    
     35000   298            inf            638.67432      0              0              21002.598    
     40000   298            inf            638.67432      0              0              21002.598    
     45000   298            inf            638.67432      0              0              21002.598    
     50000   298            inf            638.67432      0              0              21002.598    
     55000   298            inf            638.67432      0              0              21002.598    
     60000   298            inf            638.67432      0              0              21002.598    
     65000   298            inf            638.67432      0              0              21002.598    
     70000   298            inf            638.67432      0              0              21002.598    
     75000   298            inf            638.67432      0              0              21002.598    
     80000   298            inf            638.67432      0              0              21002.598    
     85000   298            inf            638.67432      0              0              21002.598    
     90000   298            inf            638.67432      0              0              21002.598    
     95000   298            inf            638.67432      0              0              21002.598    
    100000   298            inf            638.67432      0              0              21002.598    
Loop time of 48.9421 on 8 procs for 100000 steps with 720 atoms

Performance: 176.535 ns/day, 0.136 hours/ns, 2043.231 timesteps/s, 1.471 Matom-step/s
87.9% CPU use with 8 MPI tasks x 1 OpenMP threads

MPI task timing breakdown:
Section |  min time  |  avg time  |  max time  |%varavg| %total
---------------------------------------------------------------
Pair    | 15.984     | 17.892     | 19.005     |  26.2 | 36.56
Bond    | 0.0038277  | 0.0041418  | 0.0050097  |   0.6 |  0.01
Kspace  | 17.042     | 18.157     | 20.31      |  27.1 | 37.10
Neigh   | 0.071123   | 0.072616   | 0.074221   |   0.4 |  0.15
Comm    | 10.143     | 10.284     | 10.517     |   3.6 | 21.01
Output  | 0.00062459 | 0.00070307 | 0.00095643 |   0.0 |  0.00
Modify  | 1.2646     | 1.2658     | 1.2677     |   0.1 |  2.59
Other   |            | 1.266      |            |       |  2.59

Nlocal:             90 ave          90 max          90 min
Histogram: 8 0 0 0 0 0 0 0 0 0
Nghost:           2460 ave        2475 max        2445 min
Histogram: 4 0 0 0 0 0 0 0 0 4
Neighs:          17482 ave       18561 max       15979 min
Histogram: 2 0 0 0 0 0 3 1 0 2

Total # of neighbors = 139856
Ave neighs/atom = 194.24444
Ave special neighs/atom = 0
Neighbor list builds = 778
Dangerous builds = 0

print "[INFO] Production Phase"
[INFO] Production Phase
run 100000
WARNING: No fixes with time integration, atoms won't move (src/verlet.cpp:60)
PPPM initialization ...
  using 12-bit tables for long-range coulomb (src/kspace.cpp:342)
  G vector (1/distance) = 0.23433011
  grid = 10 16 20
  stencil order = 5
  estimated absolute RMS force accuracy = 0.0025726427
  estimated relative force accuracy = 7.7474371e-06
  using double precision FFTW3
  3d grid and FFT values/proc = 2550 480
Generated 28 of 28 mixed pair_coeff terms from geometric mixing rule
WARNING: Neighbor exclusions used with KSpace solver may give inconsistent Coulombic energies (src/neighbor.cpp:651)
Per MPI rank memory allocation (min/avg/max) = 6.798 | 6.802 | 6.806 Mbytes
   Step          Temp          PotEng         KinEng         v_n_h2        v_n_ch4         Volume    
    100000   298            inf            638.67432      0              0              21002.598    
    105000   298            inf            638.67432      0              0              21002.598    
    110000   298            inf            638.67432      0              0              21002.598    
    115000   298            inf            638.67432      0              0              21002.598    
    120000   298            inf            638.67432      0              0              21002.598    
    125000   298            inf            638.67432      0              0              21002.598    
    130000   298            inf            638.67432      0              0              21002.598    
    135000   298            inf            638.67432      0              0              21002.598    
    140000   298            inf            638.67432      0              0              21002.598    
    145000   298            inf            638.67432      0              0              21002.598    
    150000   298            inf            638.67432      0              0              21002.598    
    155000   298            inf            638.67432      0              0              21002.598    
    160000   298            inf            638.67432      0              0              21002.598    
    165000   298            inf            638.67432      0              0              21002.598    
    170000   298            inf            638.67432      0              0              21002.598    
    175000   298            inf            638.67432      0              0              21002.598    
    180000   298            inf            638.67432      0              0              21002.598    
    185000   298            inf            638.67432      0              0              21002.598    
    190000   298            inf            638.67432      0              0              21002.598    
    195000   298            inf            638.67432      0              0              21002.598    
    200000   298            inf            638.67432      0              0              21002.598    
Loop time of 48.4601 on 8 procs for 100000 steps with 720 atoms

Performance: 178.291 ns/day, 0.135 hours/ns, 2063.554 timesteps/s, 1.486 Matom-step/s
87.9% CPU use with 8 MPI tasks x 1 OpenMP threads

MPI task timing breakdown:
Section |  min time  |  avg time  |  max time  |%varavg| %total
---------------------------------------------------------------
Pair    | 16.002     | 17.831     | 18.798     |  25.1 | 36.80
Bond    | 0.0037839  | 0.0040878  | 0.0048063  |   0.5 |  0.01
Kspace  | 16.763     | 17.881     | 19.688     |  25.9 | 36.90
Neigh   | 0.069193   | 0.070829   | 0.074052   |   0.6 |  0.15
Comm    | 10.003     | 10.131     | 10.286     |   3.0 | 20.91
Output  | 0.0006261  | 0.00069008 | 0.00090723 |   0.0 |  0.00
Modify  | 1.2858     | 1.2869     | 1.288      |   0.1 |  2.66
Other   |            | 1.255      |            |       |  2.59

Nlocal:             90 ave          90 max          90 min
Histogram: 8 0 0 0 0 0 0 0 0 0
Nghost:           2460 ave        2475 max        2445 min
Histogram: 4 0 0 0 0 0 0 0 0 4
Neighs:          17482 ave       18561 max       15979 min
Histogram: 2 0 0 0 0 0 3 1 0 2

Total # of neighbors = 139856
Ave neighs/atom = 194.24444
Ave special neighs/atom = 0
Neighbor list builds = 796
Dangerous builds = 0

print "[INFO] Final H2: ${n_h2}"
[INFO] Final H2: 0
print "[INFO] Final CH4: ${n_ch4}"
[INFO] Final CH4: 0
print "[INFO] Completed"
[INFO] Completed
Total wall time: 0:01:37
