LAMMPS (7 Feb 2024 - Update 1)
  using 1 OpenMP thread(s) per MPI task
# GCMC: 65.0% H₂ / 35.0% CH₄ at 25 bar, 298 K
units real
atom_style full
boundary p p p

read_data "structure.data"
Reading data file ...
  orthogonal box = (0 0 0) to (24.3868 13.2612 24.971)
  2 by 2 by 2 MPI processor grid
  reading atoms ...
  580 atoms
Finding 1-2 1-3 1-4 neighbors ...
  special bond factors lj:    0        0        0       
  special bond factors coul:  0        0        0       
     0 = max # of 1-2 neighbors
     0 = max # of 1-3 neighbors
     0 = max # of 1-4 neighbors
     1 = max # of special neighbors
  special bonds CPU = 0.000 seconds
  read_data CPU = 0.004 seconds

timestep 1.0

pair_style lj/cut/coul/long 12.0
kspace_style pppm 1e-5
pair_coeff 1 1 0.104924 3.431000  # C
pair_coeff 2 2 0.237829 3.028000  # Ca
pair_coeff 3 3 0.043997 2.571000  # H
pair_coeff 4 4 0.060014 3.118000  # O

# Gas parameters
pair_coeff 5 5 0.072930 2.958000
pair_coeff 6 6 0.294106 3.730000

pair_modify mix geometric tail yes

# Groups
group framework type 1:4
580 atoms in group framework
group h2 type 5
0 atoms in group h2
group ch4 type 6
0 atoms in group ch4
group gases type 5 6
0 atoms in group gases

# Freeze framework
fix freeze framework setforce 0.0 0.0 0.0

# Counting
compute type_counts all count/type atom
variable n_h2 equal c_type_counts[5]
variable n_ch4 equal c_type_counts[6]

# Temperature monitoring
compute temp_gases gases temp
compute_modify temp_gases dynamic yes

# Chemical potentials
variable mu_h2 equal 1.653801
variable mu_ch4 equal 1.273053

# Initialize framework at target temperature
velocity framework create 298 98765 dist gaussian
velocity framework scale 298

# GCMC
fix gcmc_h2 gases gcmc 1000 5 0 5 54321 298 ${mu_h2} 0.2
fix gcmc_h2 gases gcmc 1000 5 0 5 54321 298 1.653801 0.2
fix gcmc_ch4 gases gcmc 1000 5 0 6 12345 298 ${mu_ch4} 0.2
fix gcmc_ch4 gases gcmc 1000 5 0 6 12345 298 1.273053 0.2

print "[INFO] Equilibration Phase"
[INFO] Equilibration Phase
thermo_style custom step temp pe ke v_n_h2 v_n_ch4 vol
thermo 5000
run 100000
WARNING: No fixes with time integration, atoms won't move (src/verlet.cpp:60)
PPPM initialization ...
  using 12-bit tables for long-range coulomb (src/kspace.cpp:342)
  G vector (1/distance) = 0.24722879
  grid = 15 10 15
  stencil order = 5
  estimated absolute RMS force accuracy = 0.0026676301
  estimated relative force accuracy = 8.0334889e-06
  using double precision FFTW3
  3d grid and FFT values/proc = 2352 320
Generated 15 of 15 mixed pair_coeff terms from geometric mixing rule
WARNING: Fix gcmc using full_energy option (src/MC/fix_gcmc.cpp:539)
0 atoms in group FixGCMC:gcmc_exclusion_group:gcmc_h2
WARNING: Fix gcmc using full_energy option (src/MC/fix_gcmc.cpp:539)
0 atoms in group FixGCMC:gcmc_exclusion_group:gcmc_ch4
WARNING: Neighbor exclusions used with KSpace solver may give inconsistent Coulombic energies (src/neighbor.cpp:651)
Neighbor list info ...
  update: every = 1 steps, delay = 0 steps, check = yes
  max neighbors/atom: 2000, page size: 100000
  master list distance cutoff = 14
  ghost atom cutoff = 14
  binsize = 7, bins = 4 2 4
  1 neighbor lists, perpetual/occasional/extra = 1 0 0
  (1) pair lj/cut/coul/long, perpetual
      attributes: half, newton on
      pair build: half/bin/newton
      stencil: half/bin/3d
      bin: standard
Per MPI rank memory allocation (min/avg/max) = 6.663 | 6.67 | 6.674 Mbytes
   Step          Temp          PotEng         KinEng         v_n_h2        v_n_ch4         Volume    
         0   298            1.761321e+10   514.31493      0              0              8075.5773    
      5000   301.27591      1.761321e+10   519.96878      5              2              8075.5773    
     10000   301.27591      1.761321e+10   519.96878      5              2              8075.5773    
     15000   301.80817      1.761321e+10   520.88741      7              2              8075.5773    
     20000   305.70318      1.761321e+10   527.60977      12             2              8075.5773    
     25000   307.37014      1.761321e+10   530.48675      14             4              8075.5773    
     30000   307.697        1.761321e+10   531.05088      13             5              8075.5773    
     35000   307.80482      1.761321e+10   531.23696      12             6              8075.5773    
     40000   308.68376      1.761321e+10   532.75391      15             6              8075.5773    
     45000   309.583        1.761321e+10   534.30589      18             6              8075.5773    
     50000   309.9506       1.761321e+10   534.94033      19             6              8075.5773    
     55000   310.67787      1.761321e+10   536.19553      21             6              8075.5773    
     60000   310.98833      1.761321e+10   536.73134      23             6              8075.5773    
     65000   310.98833      1.761321e+10   536.73134      23             6              8075.5773    
     70000   310.95073      1.761321e+10   536.66646      22             6              8075.5773    
     75000   313.29401      1.761321e+10   540.7107       23             7              8075.5773    
     80000   313.29401      1.761321e+10   540.7107       23             7              8075.5773    
     85000   313.29401      1.761321e+10   540.7107       23             7              8075.5773    
     90000   314.7074       1.761321e+10   543.15004      25             7              8075.5773    
     95000   314.7074       1.761321e+10   543.15004      25             7              8075.5773    
    100000   316.82484      1.761321e+10   546.80451      27             7              8075.5773    
Loop time of 83.0363 on 8 procs for 100000 steps with 614 atoms

Performance: 104.051 ns/day, 0.231 hours/ns, 1204.293 timesteps/s, 739.436 katom-step/s
92.5% CPU use with 8 MPI tasks x 1 OpenMP threads

MPI task timing breakdown:
Section |  min time  |  avg time  |  max time  |%varavg| %total
---------------------------------------------------------------
Pair    | 23.764     | 37.452     | 52.586     | 129.9 | 45.10
Bond    | 0.0039777  | 0.0046467  | 0.0057508  |   0.9 |  0.01
Kspace  | 13.505     | 28.742     | 42.761     | 150.3 | 34.61
Neigh   | 0.089062   | 0.11643    | 0.13808    |   4.6 |  0.14
Comm    | 11.554     | 11.997     | 12.275     |   6.2 | 14.45
Output  | 0.00052493 | 0.00059785 | 0.00074355 |   0.0 |  0.00
Modify  | 3.3504     | 3.3556     | 3.3614     |   0.2 |  4.04
Other   |            | 1.368      |            |       |  1.65

Nlocal:          76.75 ave          87 max          64 min
Histogram: 2 0 2 0 0 0 0 0 0 4
Nghost:        4098.12 ave        4144 max        4052 min
Histogram: 2 1 0 0 0 1 1 0 2 1
Neighs:        33762.9 ave       45546 max       21914 min
Histogram: 1 0 0 2 1 1 2 0 0 1

Total # of neighbors = 270103
Ave neighs/atom = 439.90717
Ave special neighs/atom = 0
Neighbor list builds = 1297
Dangerous builds = 0

print "[INFO] Production Phase"
[INFO] Production Phase
run 100000
WARNING: No fixes with time integration, atoms won't move (src/verlet.cpp:60)
PPPM initialization ...
  using 12-bit tables for long-range coulomb (src/kspace.cpp:342)
  G vector (1/distance) = 0.2472199
  grid = 15 10 15
  stencil order = 5
  estimated absolute RMS force accuracy = 0.0025932284
  estimated relative force accuracy = 7.8094303e-06
  using double precision FFTW3
  3d grid and FFT values/proc = 2352 320
Generated 15 of 15 mixed pair_coeff terms from geometric mixing rule
WARNING: Neighbor exclusions used with KSpace solver may give inconsistent Coulombic energies (src/neighbor.cpp:651)
Per MPI rank memory allocation (min/avg/max) = 6.791 | 6.798 | 6.802 Mbytes
   Step          Temp          PotEng         KinEng         v_n_h2        v_n_ch4         Volume    
    100000   299.25217      1.761321e+10   546.80451      27             7              8075.5773    
    105000   299.88134      1.761321e+10   547.95415      28             7              8075.5773    
    110000   299.88134      1.761321e+10   547.95415      28             7              8075.5773    
    115000   299.88134      1.761321e+10   547.95415      28             7              8075.5773    
    120000   299.88134      1.761321e+10   547.95415      28             7              8075.5773    
    125000   299.88134      1.761321e+10   547.95415      28             7              8075.5773    
    130000   299.88134      1.761321e+10   547.95415      28             7              8075.5773    
    135000   300.17447      1.761321e+10   548.48976      29             7              8075.5773    
    140000   301.63988      1.761321e+10   551.16742      30             7              8075.5773    
    145000   301.43033      1.761321e+10   550.78452      31             7              8075.5773    
    150000   301.83258      1.761321e+10   551.51953      32             7              8075.5773    
    155000   301.83258      1.761321e+10   551.51953      32             7              8075.5773    
    160000   301.83258      1.761321e+10   551.51953      32             7              8075.5773    
    165000   301.83258      1.761321e+10   551.51953      32             7              8075.5773    
    170000   301.83258      1.761321e+10   551.51953      32             7              8075.5773    
    175000   301.83258      1.761321e+10   551.51953      32             7              8075.5773    
    180000   301.83258      1.761321e+10   551.51953      32             7              8075.5773    
    185000   301.83258      1.761321e+10   551.51953      32             7              8075.5773    
    190000   302.06177      1.761321e+10   551.93831      33             7              8075.5773    
    195000   301.83258      1.761321e+10   551.51953      32             7              8075.5773    
    200000   302.06086      1.761321e+10   551.93664      33             7              8075.5773    
Loop time of 83.7045 on 8 procs for 100000 steps with 620 atoms

Performance: 103.220 ns/day, 0.233 hours/ns, 1194.679 timesteps/s, 740.701 katom-step/s
92.4% CPU use with 8 MPI tasks x 1 OpenMP threads

MPI task timing breakdown:
Section |  min time  |  avg time  |  max time  |%varavg| %total
---------------------------------------------------------------
Pair    | 25.513     | 39.454     | 54.77      | 128.4 | 47.14
Bond    | 0.0041332  | 0.0046115  | 0.0051994  |   0.5 |  0.01
Kspace  | 12.511     | 26.841     | 40.288     | 147.8 | 32.07
Neigh   | 0.096951   | 0.12211    | 0.14303    |   4.2 |  0.15
Comm    | 11.552     | 12.464     | 12.985     |  15.0 | 14.89
Output  | 0.00051801 | 0.0005723  | 0.00075303 |   0.0 |  0.00
Modify  | 3.426      | 3.4321     | 3.4392     |   0.2 |  4.10
Other   |            | 1.386      |            |       |  1.66

Nlocal:           77.5 ave          88 max          65 min
Histogram: 2 0 2 0 0 0 0 0 0 4
Nghost:           4147 ave        4185 max        4100 min
Histogram: 1 1 1 0 1 0 0 0 2 2
Neighs:        34408.8 ave       46449 max       22531 min
Histogram: 1 0 0 2 1 1 2 0 0 1

Total # of neighbors = 275270
Ave neighs/atom = 443.98387
Ave special neighs/atom = 0
Neighbor list builds = 1300
Dangerous builds = 0

print "[INFO] Final H2: ${n_h2}"
[INFO] Final H2: 33
print "[INFO] Final CH4: ${n_ch4}"
[INFO] Final CH4: 7
print "[INFO] Completed"
[INFO] Completed
Total wall time: 0:02:46
