LAMMPS (7 Feb 2024 - Update 1)
  using 1 OpenMP thread(s) per MPI task
# GCMC: 90.0% H₂ / 10.0% CH₄ at 50 bar, 298 K
units real
atom_style full
boundary p p p

read_data "structure.data"
Reading data file ...
  orthogonal box = (0 0 0) to (22.234 28.096 28.408)
  2 by 2 by 2 MPI processor grid
  reading atoms ...
  856 atoms
Finding 1-2 1-3 1-4 neighbors ...
  special bond factors lj:    0        0        0       
  special bond factors coul:  0        0        0       
     0 = max # of 1-2 neighbors
     0 = max # of 1-3 neighbors
     0 = max # of 1-4 neighbors
     1 = max # of special neighbors
  special bonds CPU = 0.000 seconds
  read_data CPU = 0.005 seconds

timestep 1.0

pair_style lj/cut/coul/long 12.0
kspace_style pppm 1e-5
pair_coeff 1 1 0.104924 3.431000  # C
pair_coeff 2 2 0.012996 2.594000  # Fe
pair_coeff 3 3 0.043997 2.571000  # H
pair_coeff 4 4 0.068956 3.261000  # N
pair_coeff 5 5 0.060014 3.118000  # O
pair_coeff 6 6 0.304777 3.695000  # P

# Gas parameters
pair_coeff 7 7 0.072930 2.958000
pair_coeff 8 8 0.294106 3.730000

pair_modify mix geometric tail yes

# Groups
group framework type 1:6
856 atoms in group framework
group h2 type 7
0 atoms in group h2
group ch4 type 8
0 atoms in group ch4
group gases type 7 8
0 atoms in group gases

# Freeze framework
fix freeze framework setforce 0.0 0.0 0.0

# Counting
compute type_counts all count/type atom
variable n_h2 equal c_type_counts[7]
variable n_ch4 equal c_type_counts[8]

# Temperature monitoring
compute temp_gases gases temp
compute_modify temp_gases dynamic yes

# Chemical potentials
variable mu_h2 equal 2.262132
variable mu_ch4 equal 0.946536

# Initialize framework at target temperature
velocity framework create 298 98765 dist gaussian
velocity framework scale 298

# GCMC
fix gcmc_h2 gases gcmc 1000 5 0 7 54321 298 ${mu_h2} 0.2
fix gcmc_h2 gases gcmc 1000 5 0 7 54321 298 2.262132 0.2
fix gcmc_ch4 gases gcmc 1000 5 0 8 12345 298 ${mu_ch4} 0.2
fix gcmc_ch4 gases gcmc 1000 5 0 8 12345 298 0.946536 0.2

print "[INFO] Equilibration Phase"
[INFO] Equilibration Phase
thermo_style custom step temp pe ke v_n_h2 v_n_ch4 vol
thermo 5000
run 100000
WARNING: No fixes with time integration, atoms won't move (src/verlet.cpp:60)
PPPM initialization ...
WARNING: System is not charge neutral, net charge = 4.5e-05 (src/kspace.cpp:327)
  using 12-bit tables for long-range coulomb (src/kspace.cpp:342)
  G vector (1/distance) = 0.24122418
  grid = 15 16 16
  stencil order = 5
  estimated absolute RMS force accuracy = 0.0027646512
  estimated relative force accuracy = 8.325665e-06
  using double precision FFTW3
  3d grid and FFT values/proc = 3150 512
Generated 28 of 28 mixed pair_coeff terms from geometric mixing rule
WARNING: Fix gcmc using full_energy option (src/MC/fix_gcmc.cpp:539)
0 atoms in group FixGCMC:gcmc_exclusion_group:gcmc_h2
WARNING: Fix gcmc using full_energy option (src/MC/fix_gcmc.cpp:539)
0 atoms in group FixGCMC:gcmc_exclusion_group:gcmc_ch4
WARNING: Neighbor exclusions used with KSpace solver may give inconsistent Coulombic energies (src/neighbor.cpp:651)
Neighbor list info ...
  update: every = 1 steps, delay = 0 steps, check = yes
  max neighbors/atom: 2000, page size: 100000
  master list distance cutoff = 14
  ghost atom cutoff = 14
  binsize = 7, bins = 4 5 5
  1 neighbor lists, perpetual/occasional/extra = 1 0 0
  (1) pair lj/cut/coul/long, perpetual
      attributes: half, newton on
      pair build: half/bin/newton
      stencil: half/bin/3d
      bin: standard
Per MPI rank memory allocation (min/avg/max) = 6.794 | 6.795 | 6.796 Mbytes
   Step          Temp          PotEng         KinEng         v_n_h2        v_n_ch4         Volume    
         0   298            1.444164e+08   759.48059      0              0              17746.093    
      5000   300.75389      1.4441639e+08  766.49914      6              3              17746.093    
     10000   302.43592      1.444164e+08   770.78595      11             5              17746.093    
     15000   304.08313      1.444164e+08   774.98402      15             9              17746.093    
     20000   306.18085      1.444164e+08   780.33024      20             11             17746.093    
     25000   308.98437      1.4441642e+08  787.47528      24             12             17746.093    
     30000   309.60524      1.4441642e+08  789.05763      28             12             17746.093    
     35000   312.6082       1.4441641e+08  796.71095      33             15             17746.093    
     40000   313.48902      1.4441641e+08  798.95579      39             16             17746.093    
     45000   314.24681      1.444164e+08   800.88709      41             17             17746.093    
     50000   316.52971      1.444164e+08   806.70528      46             17             17746.093    
     55000   316.78301      1.444164e+08   807.35084      47             18             17746.093    
     60000   316.87979      1.4441639e+08  807.59749      47             18             17746.093    
     65000   317.97651      1.4441639e+08  810.39257      51             18             17746.093    
     70000   321.63404      1.4441638e+08  819.71413      55             23             17746.093    
     75000   322.71336      1.4441638e+08  822.46489      58             24             17746.093    
     80000   324.79593      1.4441637e+08  827.77251      61             24             17746.093    
     85000   327.03874      1.4441637e+08  833.4885       64             25             17746.093    
     90000   327.61647      1.4441637e+08  834.96091      65             26             17746.093    
     95000   329.04097      1.4441637e+08  838.59138      67             28             17746.093    
    100000   329.64247      1.4441637e+08  840.12435      67             29             17746.093    
Loop time of 75.9375 on 8 procs for 100000 steps with 952 atoms

Performance: 113.778 ns/day, 0.211 hours/ns, 1316.872 timesteps/s, 1.254 Matom-step/s
89.9% CPU use with 8 MPI tasks x 1 OpenMP threads

MPI task timing breakdown:
Section |  min time  |  avg time  |  max time  |%varavg| %total
---------------------------------------------------------------
Pair    | 37.346     | 37.809     | 38.514     |   6.1 | 49.79
Bond    | 0.0045569  | 0.0051662  | 0.005749   |   0.5 |  0.01
Kspace  | 22.686     | 23.299     | 24.053     |   9.1 | 30.68
Neigh   | 0.11317    | 0.11602    | 0.11922    |   0.6 |  0.15
Comm    | 9.8488     | 10.253     | 10.551     |   6.5 | 13.50
Output  | 0.00059862 | 0.00068542 | 0.00092889 |   0.0 |  0.00
Modify  | 3.1006     | 3.1035     | 3.1066     |   0.1 |  4.09
Other   |            | 1.351      |            |       |  1.78

Nlocal:            119 ave         123 max         115 min
Histogram: 1 0 3 0 0 1 0 0 2 1
Nghost:        3521.88 ave        3556 max        3487 min
Histogram: 1 0 2 0 1 1 0 1 1 1
Neighs:        36524.1 ave       37395 max       35530 min
Histogram: 2 0 0 1 0 1 1 1 0 2

Total # of neighbors = 292193
Ave neighs/atom = 306.92542
Ave special neighs/atom = 0
Neighbor list builds = 1297
Dangerous builds = 0

print "[INFO] Production Phase"
[INFO] Production Phase
run 100000
WARNING: No fixes with time integration, atoms won't move (src/verlet.cpp:60)
PPPM initialization ...
  using 12-bit tables for long-range coulomb (src/kspace.cpp:342)
  G vector (1/distance) = 0.24121038
  grid = 15 16 16
  stencil order = 5
  estimated absolute RMS force accuracy = 0.0026222986
  estimated relative force accuracy = 7.8969743e-06
  using double precision FFTW3
  3d grid and FFT values/proc = 3150 512
Generated 28 of 28 mixed pair_coeff terms from geometric mixing rule
WARNING: Neighbor exclusions used with KSpace solver may give inconsistent Coulombic energies (src/neighbor.cpp:651)
Per MPI rank memory allocation (min/avg/max) = 6.923 | 6.925 | 6.927 Mbytes
   Step          Temp          PotEng         KinEng         v_n_h2        v_n_ch4         Volume    
    100000   296.36626      1.4441637e+08  840.12435      67             29             17746.093    
    105000   298.34979      1.4441637e+08  845.74719      70             32             17746.093    
    110000   299.80294      1.4441637e+08  849.8665       73             32             17746.093    
    115000   300.18436      1.4441637e+08  850.94772      73             34             17746.093    
    120000   302.768        1.4441637e+08  858.2717       77             34             17746.093    
    125000   303.00964      1.4441638e+08  858.95668      78             34             17746.093    
    130000   303.54703      1.4441637e+08  860.48006      80             35             17746.093    
    135000   302.90725      1.4441637e+08  858.66643      79             36             17746.093    
    140000   302.72394      1.4441636e+08  858.14678      79             36             17746.093    
    145000   302.572        1.4441636e+08  857.71608      80             36             17746.093    
    150000   303.34153      1.4441636e+08  859.89751      82             36             17746.093    
    155000   303.49849      1.4441636e+08  860.34246      82             37             17746.093    
    160000   304.06461      1.4441636e+08  861.94725      83             38             17746.093    
    165000   306.51687      1.4441635e+08  868.89881      87             39             17746.093    
    170000   306.77482      1.4441635e+08  869.63004      88             39             17746.093    
    175000   307.89874      1.4441636e+08  872.81605      90             40             17746.093    
    180000   308.55263      1.4441636e+08  874.66968      91             40             17746.093    
    185000   308.95932      1.4441635e+08  875.82255      93             39             17746.093    
    190000   309.29142      1.4441636e+08  876.76396      94             40             17746.093    
    195000   309.55858      1.4441635e+08  877.5213       95             41             17746.093    
    200000   310.02527      1.4441635e+08  878.84425      95             42             17746.093    
Loop time of 85.3443 on 8 procs for 100000 steps with 993 atoms

Performance: 101.237 ns/day, 0.237 hours/ns, 1171.724 timesteps/s, 1.164 Matom-step/s
90.6% CPU use with 8 MPI tasks x 1 OpenMP threads

MPI task timing breakdown:
Section |  min time  |  avg time  |  max time  |%varavg| %total
---------------------------------------------------------------
Pair    | 42.424     | 43.879     | 44.799     |  10.2 | 51.41
Bond    | 0.0044831  | 0.0051471  | 0.0058999  |   0.6 |  0.01
Kspace  | 24.238     | 25.033     | 25.9       |  11.1 | 29.33
Neigh   | 0.12754    | 0.13254    | 0.13849    |   0.8 |  0.16
Comm    | 11.15      | 11.316     | 11.743     |   6.2 | 13.26
Output  | 0.00062986 | 0.00068096 | 0.00090526 |   0.0 |  0.00
Modify  | 3.4901     | 3.4918     | 3.4935     |   0.1 |  4.09
Other   |            | 1.486      |            |       |  1.74

Nlocal:        124.125 ave         126 max         121 min
Histogram: 1 0 0 0 2 0 1 0 2 2
Nghost:        3668.25 ave        3690 max        3646 min
Histogram: 1 0 1 1 2 0 0 1 1 1
Neighs:        39744.5 ave       40353 max       39364 min
Histogram: 2 1 0 2 0 1 0 1 0 1

Total # of neighbors = 317956
Ave neighs/atom = 320.19738
Ave special neighs/atom = 0
Neighbor list builds = 1300
Dangerous builds = 0

print "[INFO] Final H2: ${n_h2}"
[INFO] Final H2: 95
print "[INFO] Final CH4: ${n_ch4}"
[INFO] Final CH4: 42
print "[INFO] Completed"
[INFO] Completed
Total wall time: 0:02:41
