LAMMPS (7 Feb 2024 - Update 1)
  using 1 OpenMP thread(s) per MPI task
# GCMC: 98.0% H₂ / 2.0% CH₄ at 60 bar, 298 K
units real
atom_style full
boundary p p p

read_data "structure.data"
Reading data file ...
  orthogonal box = (0 0 0) to (43.622 43.622 43.622)
  2 by 2 by 2 MPI processor grid
  reading atoms ...
  2688 atoms
Finding 1-2 1-3 1-4 neighbors ...
  special bond factors lj:    0        0        0       
  special bond factors coul:  0        0        0       
     0 = max # of 1-2 neighbors
     0 = max # of 1-3 neighbors
     0 = max # of 1-4 neighbors
     1 = max # of special neighbors
  special bonds CPU = 0.000 seconds
  read_data CPU = 0.009 seconds

timestep 1.0

pair_style lj/cut/coul/long 12.0
kspace_style pppm 1e-5
pair_coeff 1 1 0.104924 3.431000  # C
pair_coeff 2 2 0.043997 2.571000  # H
pair_coeff 3 3 0.060014 3.118000  # O
pair_coeff 4 4 0.123962 2.462000  # Zn

# Gas parameters
pair_coeff 5 5 0.072930 2.958000
pair_coeff 6 6 0.294106 3.730000

pair_modify mix geometric tail yes

# Groups
group framework type 1:4
2688 atoms in group framework
group h2 type 5
0 atoms in group h2
group ch4 type 6
0 atoms in group ch4
group gases type 5 6
0 atoms in group gases

# Freeze framework
fix freeze framework setforce 0.0 0.0 0.0

# Counting
compute type_counts all count/type atom
variable n_h2 equal c_type_counts[5]
variable n_ch4 equal c_type_counts[6]

# Temperature monitoring
compute temp_gases gases temp
compute_modify temp_gases dynamic yes

# Chemical potentials
variable mu_h2 equal 2.423137
variable mu_ch4 equal 0.106391

# Initialize framework at target temperature
velocity framework create 298 98765 dist gaussian
velocity framework scale 298

# GCMC
fix gcmc_h2 gases gcmc 1000 5 0 5 54321 298 ${mu_h2} 0.2
fix gcmc_h2 gases gcmc 1000 5 0 5 54321 298 2.423137 0.2
fix gcmc_ch4 gases gcmc 1000 5 0 6 12345 298 ${mu_ch4} 0.2
fix gcmc_ch4 gases gcmc 1000 5 0 6 12345 298 0.106391 0.2

print "[INFO] Equilibration Phase"
[INFO] Equilibration Phase
thermo_style custom step temp pe ke v_n_h2 v_n_ch4 vol
thermo 5000
run 100000
WARNING: No fixes with time integration, atoms won't move (src/verlet.cpp:60)
PPPM initialization ...
WARNING: System is not charge neutral, net charge = 0.000204 (src/kspace.cpp:327)
  using 12-bit tables for long-range coulomb (src/kspace.cpp:342)
  G vector (1/distance) = 0.23660969
  grid = 24 24 24
  stencil order = 5
  estimated absolute RMS force accuracy = 0.0021720112
  estimated relative force accuracy = 6.5409472e-06
  using double precision FFTW3
  3d grid and FFT values/proc = 6859 1728
Generated 15 of 15 mixed pair_coeff terms from geometric mixing rule
WARNING: Fix gcmc using full_energy option (src/MC/fix_gcmc.cpp:539)
0 atoms in group FixGCMC:gcmc_exclusion_group:gcmc_h2
WARNING: Fix gcmc using full_energy option (src/MC/fix_gcmc.cpp:539)
0 atoms in group FixGCMC:gcmc_exclusion_group:gcmc_ch4
WARNING: Neighbor exclusions used with KSpace solver may give inconsistent Coulombic energies (src/neighbor.cpp:651)
Neighbor list info ...
  update: every = 1 steps, delay = 0 steps, check = yes
  max neighbors/atom: 2000, page size: 100000
  master list distance cutoff = 14
  ghost atom cutoff = 14
  binsize = 7, bins = 7 7 7
  1 neighbor lists, perpetual/occasional/extra = 1 0 0
  (1) pair lj/cut/coul/long, perpetual
      attributes: half, newton on
      pair build: half/bin/newton
      stencil: half/bin/3d
      bin: standard
Per MPI rank memory allocation (min/avg/max) = 7.032 | 7.032 | 7.032 Mbytes
   Step          Temp          PotEng         KinEng         v_n_h2        v_n_ch4         Volume    
         0   298            1.8523645e+08  2386.8121      0              0              83007.383    
      5000   298.836        1.8523644e+08  2393.508       4              5              83007.383    
     10000   299.59157      1.8523644e+08  2399.5597      9              10             83007.383    
     15000   300.4302       1.8523643e+08  2406.2767      16             15             83007.383    
     20000   301.86101      1.8523643e+08  2417.7366      22             21             83007.383    
     25000   303.68463      1.8523642e+08  2432.3428      27             26             83007.383    
     30000   304.30896      1.8523642e+08  2437.3433      30             29             83007.383    
     35000   306.63323      1.8523643e+08  2455.9594      38             37             83007.383    
     40000   307.39821      1.8523641e+08  2462.0865      47             43             83007.383    
     45000   308.20188      1.8523641e+08  2468.5234      51             48             83007.383    
     50000   309.62912      1.8523641e+08  2479.9548      54             56             83007.383    
     55000   310.70081      1.8523641e+08  2488.5384      59             61             83007.383    
     60000   311.82999      1.8523639e+08  2497.5825      66             63             83007.383    
     65000   313.54426      1.8523637e+08  2511.3129      76             68             83007.383    
     70000   314.2495       1.8523637e+08  2516.9614      82             71             83007.383    
     75000   315.81489      1.8523636e+08  2529.4993      92             75             83007.383    
     80000   317.0447       1.8523635e+08  2539.3494      96             78             83007.383    
     85000   318.76939      1.8523636e+08  2553.1632      103            84             83007.383    
     90000   319.88793      1.8523636e+08  2562.1221      109            88             83007.383    
     95000   320.69218      1.8523636e+08  2568.5637      117            90             83007.383    
    100000   322.35839      1.8523637e+08  2581.9091      127            93             83007.383    
Loop time of 153.374 on 8 procs for 100000 steps with 2908 atoms

Performance: 56.333 ns/day, 0.426 hours/ns, 652.000 timesteps/s, 1.896 Matom-step/s
89.5% CPU use with 8 MPI tasks x 1 OpenMP threads

MPI task timing breakdown:
Section |  min time  |  avg time  |  max time  |%varavg| %total
---------------------------------------------------------------
Pair    | 72.989     | 75.087     | 77.231     |  16.7 | 48.96
Bond    | 0.0043413  | 0.0049932  | 0.0059947  |   0.7 |  0.00
Kspace  | 56.175     | 58.036     | 59.962     |  16.7 | 37.84
Neigh   | 0.23126    | 0.2375     | 0.24199    |   0.8 |  0.15
Comm    | 12.187     | 12.566     | 12.949     |   8.5 |  8.19
Output  | 0.00061483 | 0.00068991 | 0.00098305 |   0.0 |  0.00
Modify  | 5.838      | 5.8479     | 5.8587     |   0.4 |  3.81
Other   |            | 1.594      |            |       |  1.04

Nlocal:          363.5 ave         373 max         359 min
Histogram: 3 0 2 0 0 2 0 0 0 1
Nghost:        3654.75 ave        3684 max        3625 min
Histogram: 1 3 0 0 0 0 0 1 2 1
Neighs:        72428.5 ave       75143 max       70686 min
Histogram: 2 1 1 0 0 2 1 0 0 1

Total # of neighbors = 579428
Ave neighs/atom = 199.25309
Ave special neighs/atom = 0
Neighbor list builds = 1297
Dangerous builds = 0

print "[INFO] Production Phase"
[INFO] Production Phase
run 100000
WARNING: No fixes with time integration, atoms won't move (src/verlet.cpp:60)
PPPM initialization ...
  using 12-bit tables for long-range coulomb (src/kspace.cpp:342)
  G vector (1/distance) = 0.23660954
  grid = 24 24 24
  stencil order = 5
  estimated absolute RMS force accuracy = 0.0020882415
  estimated relative force accuracy = 6.2886774e-06
  using double precision FFTW3
  3d grid and FFT values/proc = 6859 1728
Generated 15 of 15 mixed pair_coeff terms from geometric mixing rule
WARNING: Neighbor exclusions used with KSpace solver may give inconsistent Coulombic energies (src/neighbor.cpp:651)
Per MPI rank memory allocation (min/avg/max) = 7.166 | 7.166 | 7.166 Mbytes
   Step          Temp          PotEng         KinEng         v_n_h2        v_n_ch4         Volume    
    100000   297.9625       1.8523637e+08  2581.9091      127            93             83007.383    
    105000   298.82334      1.8523636e+08  2589.3685      131            97             83007.383    
    110000   299.76012      1.8523635e+08  2597.4858      134            101            83007.383    
    115000   300.43737      1.8523634e+08  2603.3543      135            108            83007.383    
    120000   301.76808      1.8523633e+08  2614.8852      141            110            83007.383    
    125000   302.97589      1.8523633e+08  2625.3512      147            116            83007.383    
    130000   303.54499      1.8523633e+08  2630.2825      153            117            83007.383    
    135000   304.45087      1.8523634e+08  2638.1322      159            121            83007.383    
    140000   304.97485      1.8523634e+08  2642.6726      163            123            83007.383    
    145000   305.75391      1.8523635e+08  2649.4233      168            126            83007.383    
    150000   306.81342      1.8523633e+08  2658.6042      171            131            83007.383    
    155000   307.06338      1.8523633e+08  2660.7701      175            132            83007.383    
    160000   307.38384      1.8523634e+08  2663.547       176            134            83007.383    
    165000   308.69078      1.8523633e+08  2674.8719      185            136            83007.383    
    170000   309.83741      1.8523632e+08  2684.8077      191            141            83007.383    
    175000   310.44462      1.8523631e+08  2690.0694      193            146            83007.383    
    180000   310.59508      1.852363e+08   2691.3731      195            146            83007.383    
    185000   311.28407      1.8523629e+08  2697.3434      199            148            83007.383    
    190000   311.44695      1.8523628e+08  2698.7547      201            149            83007.383    
    195000   311.76702      1.8523627e+08  2701.5282      205            151            83007.383    
    200000   312.9941       1.8523627e+08  2712.1611      212            154            83007.383    
Loop time of 166.923 on 8 procs for 100000 steps with 3054 atoms

Performance: 51.761 ns/day, 0.464 hours/ns, 599.080 timesteps/s, 1.830 Matom-step/s
90.4% CPU use with 8 MPI tasks x 1 OpenMP threads

MPI task timing breakdown:
Section |  min time  |  avg time  |  max time  |%varavg| %total
---------------------------------------------------------------
Pair    | 84.798     | 87.285     | 91.598     |  20.7 | 52.29
Bond    | 0.0044882  | 0.0054074  | 0.0060706  |   0.8 |  0.00
Kspace  | 54.5       | 58.689     | 60.973     |  24.1 | 35.16
Neigh   | 0.26665    | 0.27194    | 0.27996    |   0.7 |  0.16
Comm    | 12.353     | 12.52      | 12.646     |   3.1 |  7.50
Output  | 0.0006616  | 0.00072597 | 0.00095321 |   0.0 |  0.00
Modify  | 6.5123     | 6.5216     | 6.5347     |   0.3 |  3.91
Other   |            | 1.629      |            |       |  0.98

Nlocal:         381.75 ave         395 max         376 min
Histogram: 2 2 1 1 0 1 0 0 0 1
Nghost:           3852 ave        3873 max        3825 min
Histogram: 1 1 0 0 1 1 1 1 0 2
Neighs:        80010.5 ave       83719 max       77646 min
Histogram: 1 1 1 2 1 1 0 0 0 1

Total # of neighbors = 640084
Ave neighs/atom = 209.58874
Ave special neighs/atom = 0
Neighbor list builds = 1300
Dangerous builds = 0

print "[INFO] Final H2: ${n_h2}"
[INFO] Final H2: 212
print "[INFO] Final CH4: ${n_ch4}"
[INFO] Final CH4: 154
print "[INFO] Completed"
[INFO] Completed
Total wall time: 0:05:20
