LAMMPS (7 Feb 2024 - Update 1)
  using 1 OpenMP thread(s) per MPI task
# GCMC: 75.0% H₂ / 25.0% CH₄ at 35 bar, 298 K
units real
atom_style full
boundary p p p

read_data "structure.data"
Reading data file ...
  orthogonal box = (0 0 0) to (10.377 27.474 27.701)
  1 by 2 by 4 MPI processor grid
  reading atoms ...
  296 atoms
Finding 1-2 1-3 1-4 neighbors ...
  special bond factors lj:    0        0        0       
  special bond factors coul:  0        0        0       
     0 = max # of 1-2 neighbors
     0 = max # of 1-3 neighbors
     0 = max # of 1-4 neighbors
     1 = max # of special neighbors
  special bonds CPU = 0.000 seconds
  read_data CPU = 0.004 seconds

timestep 1.0

pair_style lj/cut/coul/long 12.0
kspace_style pppm 1e-5
pair_coeff 1 1 0.104924 3.431000  # C
pair_coeff 2 2 0.043997 2.571000  # H
pair_coeff 3 3 0.060014 3.118000  # O
pair_coeff 4 4 0.123962 2.462000  # Zn

# Gas parameters
pair_coeff 5 5 0.072930 2.958000
pair_coeff 6 6 0.294106 3.730000

pair_modify mix geometric tail yes

# Groups
group framework type 1:4
296 atoms in group framework
group h2 type 5
0 atoms in group h2
group ch4 type 6
0 atoms in group ch4
group gases type 5 6
0 atoms in group gases

# Freeze framework
fix freeze framework setforce 0.0 0.0 0.0

# Counting
compute type_counts all count/type atom
variable n_h2 equal c_type_counts[5]
variable n_ch4 equal c_type_counts[6]

# Temperature monitoring
compute temp_gases gases temp
compute_modify temp_gases dynamic yes

# Chemical potentials
variable mu_h2 equal 1.939543
variable mu_ch4 equal 1.273053

# Initialize framework at target temperature
velocity framework create 298 98765 dist gaussian
velocity framework scale 298

# GCMC
fix gcmc_h2 gases gcmc 1000 5 0 5 54321 298 ${mu_h2} 0.2
fix gcmc_h2 gases gcmc 1000 5 0 5 54321 298 1.939543 0.2
fix gcmc_ch4 gases gcmc 1000 5 0 6 12345 298 ${mu_ch4} 0.2
fix gcmc_ch4 gases gcmc 1000 5 0 6 12345 298 1.273053 0.2

print "[INFO] Equilibration Phase"
[INFO] Equilibration Phase
thermo_style custom step temp pe ke v_n_h2 v_n_ch4 vol
thermo 5000
run 100000
WARNING: No fixes with time integration, atoms won't move (src/verlet.cpp:60)
PPPM initialization ...
  using 12-bit tables for long-range coulomb (src/kspace.cpp:342)
  G vector (1/distance) = 0.24227169
  grid = 8 15 15
  stencil order = 5
  estimated absolute RMS force accuracy = 0.0017712444
  estimated relative force accuracy = 5.3340499e-06
  using double precision FFTW3
  3d grid and FFT values/proc = 2100 256
Generated 15 of 15 mixed pair_coeff terms from geometric mixing rule
WARNING: Fix gcmc using full_energy option (src/MC/fix_gcmc.cpp:539)
0 atoms in group FixGCMC:gcmc_exclusion_group:gcmc_h2
WARNING: Fix gcmc using full_energy option (src/MC/fix_gcmc.cpp:539)
0 atoms in group FixGCMC:gcmc_exclusion_group:gcmc_ch4
WARNING: Neighbor exclusions used with KSpace solver may give inconsistent Coulombic energies (src/neighbor.cpp:651)
Neighbor list info ...
  update: every = 1 steps, delay = 0 steps, check = yes
  max neighbors/atom: 2000, page size: 100000
  master list distance cutoff = 14
  ghost atom cutoff = 14
  binsize = 7, bins = 2 4 4
  1 neighbor lists, perpetual/occasional/extra = 1 0 0
  (1) pair lj/cut/coul/long, perpetual
      attributes: half, newton on
      pair build: half/bin/newton
      stencil: half/bin/3d
      bin: standard
Per MPI rank memory allocation (min/avg/max) = 6.488 | 6.49 | 6.492 Mbytes
   Step          Temp          PotEng         KinEng         v_n_h2        v_n_ch4         Volume    
         0   298            24416175       262.04301      0              0              7897.4913    
      5000   306.96522      24416169       269.92648      6              3              7897.4913    
     10000   310.5067       24416164       273.04064      10             6              7897.4913    
     15000   317.0072       24416158       278.75678      16             8              7897.4913    
     20000   323.61607      24416152       284.56822      24             9              7897.4913    
     25000   332.7989       24416148       292.64304      27             12             7897.4913    
     30000   340.53435      24416150       299.44512      30             12             7897.4913    
     35000   346.43283      24416149       304.63188      32             14             7897.4913    
     40000   349.33967      24416147       307.18798      36             15             7897.4913    
     45000   348.61362      24416140       306.54954      36             16             7897.4913    
     50000   351.67676      24416141       309.24308      39             16             7897.4913    
     55000   352.24588      24416139       309.74352      39             17             7897.4913    
     60000   353.73181      24416147       311.05016      41             18             7897.4913    
     65000   359.53664      24416160       316.15457      45             20             7897.4913    
     70000   364.70846      24416174       320.70236      48             22             7897.4913    
     75000   367.58515      24416173       323.23195      50             22             7897.4913    
     80000   367.59132      24416171       323.23737      50             22             7897.4913    
     85000   368.2511       24416162       323.81754      51             22             7897.4913    
     90000   376.19699      24416166       330.80467      57             22             7897.4913    
     95000   378.00965      24416167       332.39862      58             23             7897.4913    
    100000   383.36205      24416170       337.10519      61             23             7897.4913    
Loop time of 39.9091 on 8 procs for 100000 steps with 380 atoms

Performance: 216.492 ns/day, 0.111 hours/ns, 2505.695 timesteps/s, 952.164 katom-step/s
88.2% CPU use with 8 MPI tasks x 1 OpenMP threads

MPI task timing breakdown:
Section |  min time  |  avg time  |  max time  |%varavg| %total
---------------------------------------------------------------
Pair    | 6.6522     | 10.632     | 13.822     |  84.2 | 26.64
Bond    | 0.0035424  | 0.0038147  | 0.0042884  |   0.4 |  0.01
Kspace  | 13.144     | 16.386     | 20.492     |  65.4 | 41.06
Neigh   | 0.031858   | 0.046192   | 0.059424   |   4.6 |  0.12
Comm    | 9.5625     | 10.092     | 10.522     |   7.7 | 25.29
Output  | 0.00045774 | 0.00053471 | 0.0006909  |   0.0 |  0.00
Modify  | 1.5728     | 1.5776     | 1.5832     |   0.4 |  3.95
Other   |            | 1.172      |            |       |  2.94

Nlocal:           47.5 ave          61 max          36 min
Histogram: 2 2 0 0 0 0 0 1 2 1
Nghost:        2653.88 ave        2729 max        2588 min
Histogram: 2 1 1 0 0 0 1 1 1 1
Neighs:        12970.4 ave       16542 max        8492 min
Histogram: 1 0 2 0 1 0 1 0 1 2

Total # of neighbors = 103763
Ave neighs/atom = 273.06053
Ave special neighs/atom = 0
Neighbor list builds = 1289
Dangerous builds = 0

print "[INFO] Production Phase"
[INFO] Production Phase
run 100000
WARNING: No fixes with time integration, atoms won't move (src/verlet.cpp:60)
PPPM initialization ...
  using 12-bit tables for long-range coulomb (src/kspace.cpp:342)
  G vector (1/distance) = 0.24226818
  grid = 8 15 15
  stencil order = 5
  estimated absolute RMS force accuracy = 0.0015633772
  estimated relative force accuracy = 4.7080641e-06
  using double precision FFTW3
  3d grid and FFT values/proc = 2100 256
Generated 15 of 15 mixed pair_coeff terms from geometric mixing rule
WARNING: Neighbor exclusions used with KSpace solver may give inconsistent Coulombic energies (src/neighbor.cpp:651)
Per MPI rank memory allocation (min/avg/max) = 6.622 | 6.637 | 6.642 Mbytes
   Step          Temp          PotEng         KinEng         v_n_h2        v_n_ch4         Volume    
    100000   298.39526      24416170       337.10519      61             23             7897.4913    
    105000   298.39526      24416170       337.10519      61             23             7897.4913    
    110000   298.56449      24416170       337.29636      61             24             7897.4913    
    115000   297.93933      24416160       336.59011      59             24             7897.4913    
    120000   298.98605      24416167       337.77262      62             24             7897.4913    
    125000   302.49528      24416171       341.73708      64             24             7897.4913    
    130000   303.76058      24416172       343.16653      64             25             7897.4913    
    135000   303.22548      24416166       342.56201      63             25             7897.4913    
    140000   305.60856      24416163       345.25424      64             25             7897.4913    
    145000   304.72948      24416159       344.26113      63             25             7897.4913    
    150000   306.29473      24416153       346.02943      63             26             7897.4913    
    155000   306.80534      24416151       346.60628      64             26             7897.4913    
    160000   307.25161      24416150       347.11044      65             26             7897.4913    
    165000   307.25161      24416150       347.11044      65             26             7897.4913    
    170000   310.24296      24416155       350.48985      67             26             7897.4913    
    175000   310.35585      24416155       350.61739      68             26             7897.4913    
    180000   310.09015      24416150       350.31722      68             26             7897.4913    
    185000   311.69815      24416152       352.13382      70             27             7897.4913    
    190000   311.69815      24416152       352.13382      70             27             7897.4913    
    195000   315.34752      24416153       356.25661      72             28             7897.4913    
    200000   313.17616      24416140       353.80357      70             28             7897.4913    
Loop time of 43.3209 on 8 procs for 100000 steps with 394 atoms

Performance: 199.442 ns/day, 0.120 hours/ns, 2308.356 timesteps/s, 909.492 katom-step/s
88.2% CPU use with 8 MPI tasks x 1 OpenMP threads

MPI task timing breakdown:
Section |  min time  |  avg time  |  max time  |%varavg| %total
---------------------------------------------------------------
Pair    | 8.3969     | 13.438     | 17.181     |  80.1 | 31.02
Bond    | 0.0036866  | 0.0038946  | 0.0042545  |   0.3 |  0.01
Kspace  | 12.707     | 16.01      | 21.478     |  73.1 | 36.96
Neigh   | 0.039471   | 0.056269   | 0.069751   |   4.1 |  0.13
Comm    | 10.29      | 10.679     | 11.087     |   6.3 | 24.65
Output  | 0.00046594 | 0.00054397 | 0.00070503 |   0.0 |  0.00
Modify  | 1.7786     | 1.7838     | 1.7902     |   0.3 |  4.12
Other   |            | 1.349      |            |       |  3.11

Nlocal:          49.25 ave          60 max          39 min
Histogram: 3 1 0 0 0 0 0 0 2 2
Nghost:        2748.38 ave        2812 max        2700 min
Histogram: 4 0 0 0 0 0 2 0 0 2
Neighs:        13953.9 ave       16760 max        9361 min
Histogram: 1 0 1 0 1 0 1 1 0 3

Total # of neighbors = 111631
Ave neighs/atom = 283.32741
Ave special neighs/atom = 0
Neighbor list builds = 1300
Dangerous builds = 0

print "[INFO] Final H2: ${n_h2}"
[INFO] Final H2: 70
print "[INFO] Final CH4: ${n_ch4}"
[INFO] Final CH4: 28
print "[INFO] Completed"
[INFO] Completed
Total wall time: 0:01:23
