# LAMMPS data file for MOF_0952
# Cell parameters: a=29.953 b=29.953 c=29.953
# Cell angles: alpha=90.0° beta=90.0° gamma=90.0°
# <<Zeo++>>
# Framework_density: 0.452518 g/cm3
# Accessible_surface_area: 4430.510000 m2/g
# Void_fraction: 0.591380
# Accessible_volume: 1.306820 cm3/g
# Largest_included_sphere_diameter: 21.776240 A
# Largest_free_sphere_diameter: 7.630560 A
# Pore_limiting_diameter: 21.776240 A
# <<Zeo++>>
708 atoms
0 bonds
0 angles
0 dihedrals
0 impropers

6 atom types

0.0 29.952500 xlo xhi
0.0 29.952500 ylo yhi
0.0 29.952500 zlo zhi

Masses

1 12.011  # C
2 1.008  # H
3 15.999  # O
4 65.380  # Zn
5 2.016  # H2 (GCMC insert - neutral charge)
6 16.043  # CH4 (GCMC insert - neutral charge)

Atoms  

1 1 4 0.957375 1.597067 5.312375 14.976250
2 1 4 0.957375 28.355433 24.640125 14.976250
3 1 4 0.957375 28.355433 5.312375 14.976250
4 1 4 0.957375 1.597067 24.640125 14.976250
5 1 4 0.957375 14.976250 1.597067 5.312375
6 1 4 0.957375 14.976250 28.355433 24.640125
7 1 4 0.957375 14.976250 28.355433 5.312375
8 1 4 0.957375 14.976250 1.597067 24.640125
9 1 4 0.957375 5.312375 14.976250 1.597067
10 1 4 0.957375 24.640125 14.976250 28.355433
11 1 4 0.957375 5.312375 14.976250 28.355433
12 1 4 0.957375 24.640125 14.976250 1.597067
13 1 4 0.950466 0.000000 7.529759 13.380381
14 1 4 0.950466 0.000000 22.422741 13.380381
15 1 4 0.950466 0.000000 7.529759 16.572119
16 1 4 0.950466 0.000000 22.422741 16.572119
17 1 4 0.950466 13.380381 0.000000 7.529759
18 1 4 0.950466 13.380381 0.000000 22.422741
19 1 4 0.950466 16.572119 0.000000 7.529759
20 1 4 0.950466 16.572119 0.000000 22.422741
21 1 4 0.950466 7.529759 13.380381 0.000000
22 1 4 0.950466 22.422741 13.380381 0.000000
23 1 4 0.950466 7.529759 16.572119 0.000000
24 1 4 0.950466 22.422741 16.572119 0.000000
25 1 2 0.129543 2.923364 8.024275 10.375546
26 1 2 0.129543 27.029136 21.928225 10.375546
27 1 2 0.129543 27.029136 8.024275 19.576954
28 1 2 0.129543 2.923364 21.928225 19.576954
29 1 2 0.129543 10.375546 2.923364 8.024275
30 1 2 0.129543 10.375546 27.029136 21.928225
31 1 2 0.129543 19.576954 27.029136 8.024275
32 1 2 0.129543 19.576954 2.923364 21.928225
33 1 2 0.129543 8.024275 10.375546 2.923364
34 1 2 0.129543 21.928225 10.375546 27.029136
35 1 2 0.129543 8.024275 19.576954 27.029136
36 1 2 0.129543 21.928225 19.576954 2.923364
37 1 2 0.129543 27.029136 21.928225 19.576954
38 1 2 0.129543 2.923364 8.024275 19.576954
39 1 2 0.129543 2.923364 21.928225 10.375546
40 1 2 0.129543 27.029136 8.024275 10.375546
41 1 2 0.129543 19.576954 27.029136 21.928225
42 1 2 0.129543 19.576954 2.923364 8.024275
43 1 2 0.129543 10.375546 2.923364 21.928225
44 1 2 0.129543 10.375546 27.029136 8.024275
45 1 2 0.129543 21.928225 19.576954 27.029136
46 1 2 0.129543 8.024275 19.576954 2.923364
47 1 2 0.129543 21.928225 10.375546 2.923364
48 1 2 0.129543 8.024275 10.375546 27.029136
49 1 2 0.129543 1.982855 1.156167 14.976250
50 1 2 0.129543 27.969645 28.796334 14.976250
51 1 2 0.129543 27.969645 1.156167 14.976250
52 1 2 0.129543 1.982855 28.796334 14.976250
53 1 2 0.129543 14.976250 1.982855 1.156167
54 1 2 0.129543 14.976250 27.969645 28.796334
55 1 2 0.129543 14.976250 27.969645 1.156167
56 1 2 0.129543 14.976250 1.982855 28.796334
57 1 2 0.129543 1.156167 14.976250 1.982855
58 1 2 0.129543 28.796334 14.976250 27.969645
59 1 2 0.129543 1.156167 14.976250 27.969645
60 1 2 0.129543 28.796334 14.976250 1.982855
61 1 2 0.129543 4.591718 4.810371 12.082838
62 1 2 0.129543 25.360782 25.142129 12.082838
63 1 2 0.129543 25.360782 4.810371 17.869661
64 1 2 0.129543 4.591718 25.142129 17.869661
65 1 2 0.129543 12.082838 4.591718 4.810371
66 1 2 0.129543 12.082838 25.360782 25.142129
67 1 2 0.129543 17.869661 25.360782 4.810371
68 1 2 0.129543 17.869661 4.591718 25.142129
69 1 2 0.129543 4.810371 12.082838 4.591718
70 1 2 0.129543 25.142129 12.082838 25.360782
71 1 2 0.129543 4.810371 17.869661 25.360782
72 1 2 0.129543 25.142129 17.869661 4.591718
73 1 2 0.129543 25.360782 25.142129 17.869661
74 1 2 0.129543 4.591718 4.810371 17.869661
75 1 2 0.129543 4.591718 25.142129 12.082838
76 1 2 0.129543 25.360782 4.810371 12.082838
77 1 2 0.129543 17.869661 25.360782 25.142129
78 1 2 0.129543 17.869661 4.591718 4.810371
79 1 2 0.129543 12.082838 4.591718 25.142129
80 1 2 0.129543 12.082838 25.360782 4.810371
81 1 2 0.129543 25.142129 17.869661 25.360782
82 1 2 0.129543 4.810371 17.869661 4.591718
83 1 2 0.129543 25.142129 12.082838 4.591718
84 1 2 0.129543 4.810371 12.082838 25.360782
85 1 2 0.119944 6.230120 4.771433 10.459413
86 1 2 0.119944 23.722380 25.181067 10.459413
87 1 2 0.119944 23.722380 4.771433 19.493087
88 1 2 0.119944 6.230120 25.181067 19.493087
89 1 2 0.119944 10.459413 6.230120 4.771433
90 1 2 0.119944 10.459413 23.722380 25.181067
91 1 2 0.119944 19.493087 23.722380 4.771433
92 1 2 0.119944 19.493087 6.230120 25.181067
93 1 2 0.119944 4.771433 10.459413 6.230120
94 1 2 0.119944 25.181067 10.459413 23.722380
95 1 2 0.119944 4.771433 19.493087 23.722380
96 1 2 0.119944 25.181067 19.493087 6.230120
97 1 2 0.119944 23.722380 25.181067 19.493087
98 1 2 0.119944 6.230120 4.771433 19.493087
99 1 2 0.119944 6.230120 25.181067 10.459413
100 1 2 0.119944 23.722380 4.771433 10.459413
101 1 2 0.119944 19.493087 23.722380 25.181067
102 1 2 0.119944 19.493087 6.230120 4.771433
103 1 2 0.119944 10.459413 6.230120 25.181067
104 1 2 0.119944 10.459413 23.722380 4.771433
105 1 2 0.119944 25.181067 19.493087 23.722380
106 1 2 0.119944 4.771433 19.493087 6.230120
107 1 2 0.119944 25.181067 10.459413 6.230120
108 1 2 0.119944 4.771433 10.459413 23.722380
109 1 2 0.129543 3.354680 7.356334 7.155652
110 1 2 0.129543 26.597820 22.596166 7.155652
111 1 2 0.129543 26.597820 7.356334 22.796848
112 1 2 0.129543 3.354680 22.596166 22.796848
113 1 2 0.129543 7.155652 3.354680 7.356334
114 1 2 0.129543 7.155652 26.597820 22.596166
115 1 2 0.129543 22.796848 26.597820 7.356334
116 1 2 0.129543 22.796848 3.354680 22.596166
117 1 2 0.129543 7.356334 7.155652 3.354680
118 1 2 0.129543 22.596166 7.155652 26.597820
119 1 2 0.129543 7.356334 22.796848 26.597820
120 1 2 0.129543 22.596166 22.796848 3.354680
121 1 2 0.129543 26.597820 22.596166 22.796848
122 1 2 0.129543 3.354680 7.356334 22.796848
123 1 2 0.129543 3.354680 22.596166 7.155652
124 1 2 0.129543 26.597820 7.356334 7.155652
125 1 2 0.129543 22.796848 26.597820 22.596166
126 1 2 0.129543 22.796848 3.354680 7.356334
127 1 2 0.129543 7.155652 3.354680 22.596166
128 1 2 0.129543 7.155652 26.597820 7.356334
129 1 2 0.129543 22.596166 22.796848 26.597820
130 1 2 0.129543 7.356334 22.796848 3.354680
131 1 2 0.129543 22.596166 7.155652 3.354680
132 1 2 0.129543 7.356334 7.155652 26.597820
133 1 2 0.119944 3.657200 8.794054 6.613512
134 1 2 0.119944 26.295300 21.158446 6.613512
135 1 2 0.119944 26.295300 8.794054 23.338988
136 1 2 0.119944 3.657200 21.158446 23.338988
137 1 2 0.119944 6.613512 3.657200 8.794054
138 1 2 0.119944 6.613512 26.295300 21.158446
139 1 2 0.119944 23.338988 26.295300 8.794054
140 1 2 0.119944 23.338988 3.657200 21.158446
141 1 2 0.119944 8.794054 6.613512 3.657200
142 1 2 0.119944 21.158446 6.613512 26.295300
143 1 2 0.119944 8.794054 23.338988 26.295300
144 1 2 0.119944 21.158446 23.338988 3.657200
145 1 2 0.119944 26.295300 21.158446 23.338988
146 1 2 0.119944 3.657200 8.794054 23.338988
147 1 2 0.119944 3.657200 21.158446 6.613512
148 1 2 0.119944 26.295300 8.794054 6.613512
149 1 2 0.119944 23.338988 26.295300 21.158446
150 1 2 0.119944 23.338988 3.657200 8.794054
151 1 2 0.119944 6.613512 3.657200 21.158446
152 1 2 0.119944 6.613512 26.295300 8.794054
153 1 2 0.119944 21.158446 23.338988 26.295300
154 1 2 0.119944 8.794054 23.338988 3.657200
155 1 2 0.119944 21.158446 6.613512 3.657200
156 1 2 0.119944 8.794054 6.613512 26.295300
157 1 2 0.119944 2.749640 8.608348 7.877508
158 1 2 0.119944 27.202860 21.344152 7.877508
159 1 2 0.119944 27.202860 8.608348 22.074993
160 1 2 0.119944 2.749640 21.344152 22.074993
161 1 2 0.119944 7.877508 2.749640 8.608348
162 1 2 0.119944 7.877508 27.202860 21.344152
163 1 2 0.119944 22.074993 27.202860 8.608348
164 1 2 0.119944 22.074993 2.749640 21.344152
165 1 2 0.119944 8.608348 7.877508 2.749640
166 1 2 0.119944 21.344152 7.877508 27.202860
167 1 2 0.119944 8.608348 22.074993 27.202860
168 1 2 0.119944 21.344152 22.074993 2.749640
169 1 2 0.119944 27.202860 21.344152 22.074993
170 1 2 0.119944 2.749640 8.608348 22.074993
171 1 2 0.119944 2.749640 21.344152 7.877508
172 1 2 0.119944 27.202860 8.608348 7.877508
173 1 2 0.119944 22.074993 27.202860 21.344152
174 1 2 0.119944 22.074993 2.749640 8.608348
175 1 2 0.119944 7.877508 2.749640 21.344152
176 1 2 0.119944 7.877508 27.202860 8.608348
177 1 2 0.119944 21.344152 22.074993 27.202860
178 1 2 0.119944 8.608348 22.074993 2.749640
179 1 2 0.119944 21.344152 7.877508 2.749640
180 1 2 0.119944 8.608348 7.877508 27.202860
181 1 2 0.119944 4.184364 10.031092 9.351171
182 1 2 0.119944 25.768136 19.921408 9.351171
183 1 2 0.119944 25.768136 10.031092 20.601329
184 1 2 0.119944 4.184364 19.921408 20.601329
185 1 2 0.119944 9.351171 4.184364 10.031092
186 1 2 0.119944 9.351171 25.768136 19.921408
187 1 2 0.119944 20.601329 25.768136 10.031092
188 1 2 0.119944 20.601329 4.184364 19.921408
189 1 2 0.119944 10.031092 9.351171 4.184364
190 1 2 0.119944 19.921408 9.351171 25.768136
191 1 2 0.119944 10.031092 20.601329 25.768136
192 1 2 0.119944 19.921408 20.601329 4.184364
193 1 2 0.119944 25.768136 19.921408 20.601329
194 1 2 0.119944 4.184364 10.031092 20.601329
195 1 2 0.119944 4.184364 19.921408 9.351171
196 1 2 0.119944 25.768136 10.031092 9.351171
197 1 2 0.119944 20.601329 25.768136 19.921408
198 1 2 0.119944 20.601329 4.184364 10.031092
199 1 2 0.119944 9.351171 4.184364 19.921408
200 1 2 0.119944 9.351171 25.768136 10.031092
201 1 2 0.119944 19.921408 20.601329 25.768136
202 1 2 0.119944 10.031092 20.601329 4.184364
203 1 2 0.119944 19.921408 9.351171 4.184364
204 1 2 0.119944 10.031092 9.351171 25.768136
205 1 2 0.119944 5.202749 10.354579 8.200995
206 1 2 0.119944 24.749751 19.597921 8.200995
207 1 2 0.119944 24.749751 10.354579 21.751506
208 1 2 0.119944 5.202749 19.597921 21.751506
209 1 2 0.119944 8.200995 5.202749 10.354579
210 1 2 0.119944 8.200995 24.749751 19.597921
211 1 2 0.119944 21.751506 24.749751 10.354579
212 1 2 0.119944 21.751506 5.202749 19.597921
213 1 2 0.119944 10.354579 8.200995 5.202749
214 1 2 0.119944 19.597921 8.200995 24.749751
215 1 2 0.119944 10.354579 21.751506 24.749751
216 1 2 0.119944 19.597921 21.751506 5.202749
217 1 2 0.119944 24.749751 19.597921 21.751506
218 1 2 0.119944 5.202749 10.354579 21.751506
219 1 2 0.119944 5.202749 19.597921 8.200995
220 1 2 0.119944 24.749751 10.354579 8.200995
221 1 2 0.119944 21.751506 24.749751 19.597921
222 1 2 0.119944 21.751506 5.202749 10.354579
223 1 2 0.119944 8.200995 5.202749 19.597921
224 1 2 0.119944 8.200995 24.749751 10.354579
225 1 2 0.119944 19.597921 21.751506 24.749751
226 1 2 0.119944 10.354579 21.751506 5.202749
227 1 2 0.119944 19.597921 8.200995 5.202749
228 1 2 0.119944 10.354579 8.200995 24.749751
229 1 2 0.129543 5.705951 9.695624 9.530886
230 1 2 0.129543 24.246549 20.256876 9.530886
231 1 2 0.129543 24.246549 9.695624 20.421615
232 1 2 0.129543 5.705951 20.256876 20.421615
233 1 2 0.129543 9.530886 5.705951 9.695624
234 1 2 0.129543 9.530886 24.246549 20.256876
235 1 2 0.129543 20.421615 24.246549 9.695624
236 1 2 0.129543 20.421615 5.705951 20.256876
237 1 2 0.129543 9.695624 9.530886 5.705951
238 1 2 0.129543 20.256876 9.530886 24.246549
239 1 2 0.129543 9.695624 20.421615 24.246549
240 1 2 0.129543 20.256876 20.421615 5.705951
241 1 2 0.129543 24.246549 20.256876 20.421615
242 1 2 0.129543 5.705951 9.695624 20.421615
243 1 2 0.129543 5.705951 20.256876 9.530886
244 1 2 0.129543 24.246549 9.695624 9.530886
245 1 2 0.129543 20.421615 24.246549 20.256876
246 1 2 0.129543 20.421615 5.705951 9.695624
247 1 2 0.129543 9.530886 5.705951 20.256876
248 1 2 0.129543 9.530886 24.246549 9.695624
249 1 2 0.129543 20.256876 20.421615 24.246549
250 1 2 0.129543 9.695624 20.421615 5.705951
251 1 2 0.129543 20.256876 9.530886 5.705951
252 1 2 0.129543 9.695624 9.530886 24.246549
253 1 2 0.129543 0.000000 11.687466 13.020352
254 1 2 0.129543 0.000000 18.265035 13.020352
255 1 2 0.129543 0.000000 11.687466 16.932148
256 1 2 0.129543 0.000000 18.265035 16.932148
257 1 2 0.129543 13.020352 0.000000 11.687466
258 1 2 0.129543 13.020352 0.000000 18.265035
259 1 2 0.129543 16.932148 0.000000 11.687466
260 1 2 0.129543 16.932148 0.000000 18.265035
261 1 2 0.129543 11.687466 13.020352 0.000000
262 1 2 0.129543 18.265035 13.020352 0.000000
263 1 2 0.129543 11.687466 16.932148 0.000000
264 1 2 0.129543 18.265035 16.932148 0.000000
265 1 2 0.119944 0.000000 13.990813 13.029338
266 1 2 0.119944 0.000000 15.961687 13.029338
267 1 2 0.119944 0.000000 13.990813 16.923163
268 1 2 0.119944 0.000000 15.961687 16.923163
269 1 2 0.119944 13.029338 0.000000 13.990813
270 1 2 0.119944 13.029338 0.000000 15.961687
271 1 2 0.119944 16.923163 0.000000 13.990813
272 1 2 0.119944 16.923163 0.000000 15.961687
273 1 2 0.119944 13.990813 13.029338 0.000000
274 1 2 0.119944 15.961687 13.029338 0.000000
275 1 2 0.119944 13.990813 16.923163 0.000000
276 1 2 0.119944 15.961687 16.923163 0.000000
277 1 1 0.609429 0.000000 2.876638 14.976250
278 1 1 0.609429 0.000000 27.075862 14.976250
279 1 1 0.609429 14.976250 0.000000 2.876638
280 1 1 0.609429 14.976250 0.000000 27.075862
281 1 1 0.609429 2.876638 14.976250 0.000000
282 1 1 0.609429 27.075862 14.976250 0.000000
283 1 1 0.609429 0.000000 9.954114 14.976250
284 1 1 0.609429 0.000000 19.998386 14.976250
285 1 1 0.609429 14.976250 0.000000 9.954114
286 1 1 0.609429 14.976250 0.000000 19.998386
287 1 1 0.609429 9.954114 14.976250 0.000000
288 1 1 0.609429 19.998386 14.976250 0.000000
289 1 1 0.602247 2.532484 6.418521 12.450356
290 1 1 0.602247 27.420016 23.533979 12.450356
291 1 1 0.602247 27.420016 6.418521 17.502144
292 1 1 0.602247 2.532484 23.533979 17.502144
293 1 1 0.602247 12.450356 2.532484 6.418521
294 1 1 0.602247 12.450356 27.420016 23.533979
295 1 1 0.602247 17.502144 27.420016 6.418521
296 1 1 0.602247 17.502144 2.532484 23.533979
297 1 1 0.602247 6.418521 12.450356 2.532484
298 1 1 0.602247 23.533979 12.450356 27.420016
299 1 1 0.602247 6.418521 17.502144 27.420016
300 1 1 0.602247 23.533979 17.502144 2.532484
301 1 1 0.602247 27.420016 23.533979 17.502144
302 1 1 0.602247 2.532484 6.418521 17.502144
303 1 1 0.602247 2.532484 23.533979 12.450356
304 1 1 0.602247 27.420016 6.418521 12.450356
305 1 1 0.602247 17.502144 27.420016 23.533979
306 1 1 0.602247 17.502144 2.532484 6.418521
307 1 1 0.602247 12.450356 2.532484 23.533979
308 1 1 0.602247 12.450356 27.420016 6.418521
309 1 1 0.602247 23.533979 17.502144 27.420016
310 1 1 0.602247 6.418521 17.502144 2.532484
311 1 1 0.602247 23.533979 12.450356 2.532484
312 1 1 0.602247 6.418521 12.450356 27.420016
313 1 1 -0.038055 0.000000 1.377515 14.976250
314 1 1 -0.038055 0.000000 28.574985 14.976250
315 1 1 -0.038055 14.976250 0.000000 1.377515
316 1 1 -0.038055 14.976250 0.000000 28.574985
317 1 1 -0.038055 1.377515 14.976250 0.000000
318 1 1 -0.038055 28.574985 14.976250 0.000000
319 1 1 -0.154699 3.588909 7.376702 10.399808
320 1 1 -0.154699 26.363591 22.575798 10.399808
321 1 1 -0.154699 26.363591 7.376702 19.552692
322 1 1 -0.154699 3.588909 22.575798 19.552692
323 1 1 -0.154699 10.399808 3.588909 7.376702
324 1 1 -0.154699 10.399808 26.363591 22.575798
325 1 1 -0.154699 19.552692 26.363591 7.376702
326 1 1 -0.154699 19.552692 3.588909 22.575798
327 1 1 -0.154699 7.376702 10.399808 3.588909
328 1 1 -0.154699 22.575798 10.399808 26.363591
329 1 1 -0.154699 7.376702 19.552692 26.363591
330 1 1 -0.154699 22.575798 19.552692 3.588909
331 1 1 -0.154699 26.363591 22.575798 19.552692
332 1 1 -0.154699 3.588909 7.376702 19.552692
333 1 1 -0.154699 3.588909 22.575798 10.399808
334 1 1 -0.154699 26.363591 7.376702 10.399808
335 1 1 -0.154699 19.552692 26.363591 22.575798
336 1 1 -0.154699 19.552692 3.588909 7.376702
337 1 1 -0.154699 10.399808 3.588909 22.575798
338 1 1 -0.154699 10.399808 26.363591 7.376702
339 1 1 -0.154699 22.575798 19.552692 26.363591
340 1 1 -0.154699 7.376702 19.552692 3.588909
341 1 1 -0.154699 22.575798 10.399808 3.588909
342 1 1 -0.154699 7.376702 10.399808 26.363591
343 1 1 0.031527 5.585842 6.393661 9.443125
344 1 1 0.031527 24.366658 23.558839 9.443125
345 1 1 0.031527 24.366658 6.393661 20.509375
346 1 1 0.031527 5.585842 23.558839 20.509375
347 1 1 0.031527 9.443125 5.585842 6.393661
348 1 1 0.031527 9.443125 24.366658 23.558839
349 1 1 0.031527 20.509375 24.366658 6.393661
350 1 1 0.031527 20.509375 5.585842 23.558839
351 1 1 0.031527 6.393661 9.443125 5.585842
352 1 1 0.031527 23.558839 9.443125 24.366658
353 1 1 0.031527 6.393661 20.509375 24.366658
354 1 1 0.031527 23.558839 20.509375 5.585842
355 1 1 0.031527 24.366658 23.558839 20.509375
356 1 1 0.031527 5.585842 6.393661 20.509375
357 1 1 0.031527 5.585842 23.558839 9.443125
358 1 1 0.031527 24.366658 6.393661 9.443125
359 1 1 0.031527 20.509375 24.366658 23.558839
360 1 1 0.031527 20.509375 5.585842 6.393661
361 1 1 0.031527 9.443125 5.585842 23.558839
362 1 1 0.031527 9.443125 24.366658 6.393661
363 1 1 0.031527 23.558839 20.509375 24.366658
364 1 1 0.031527 6.393661 20.509375 5.585842
365 1 1 0.031527 23.558839 9.443125 5.585842
366 1 1 0.031527 6.393661 9.443125 24.366658
367 1 1 -0.084112 1.178032 0.693101 14.976250
368 1 1 -0.084112 28.774468 29.259399 14.976250
369 1 1 -0.084112 28.774468 0.693101 14.976250
370 1 1 -0.084112 1.178032 29.259399 14.976250
371 1 1 -0.084112 14.976250 1.178032 0.693101
372 1 1 -0.084112 14.976250 28.774468 29.259399
373 1 1 -0.084112 14.976250 28.774468 0.693101
374 1 1 -0.084112 14.976250 1.178032 29.259399
375 1 1 -0.084112 0.693101 14.976250 1.178032
376 1 1 -0.084112 29.259399 14.976250 28.774468
377 1 1 -0.084112 0.693101 14.976250 28.774468
378 1 1 -0.084112 29.259399 14.976250 1.178032
379 1 1 0.031527 4.584530 7.365320 9.438332
380 1 1 0.031527 25.367970 22.587180 9.438332
381 1 1 0.031527 25.367970 7.365320 20.514168
382 1 1 0.031527 4.584530 22.587180 20.514168
383 1 1 0.031527 9.438332 4.584530 7.365320
384 1 1 0.031527 9.438332 25.367970 22.587180
385 1 1 0.031527 20.514168 25.367970 7.365320
386 1 1 0.031527 20.514168 4.584530 22.587180
387 1 1 0.031527 7.365320 9.438332 4.584530
388 1 1 0.031527 22.587180 9.438332 25.367970
389 1 1 0.031527 7.365320 20.514168 25.367970
390 1 1 0.031527 22.587180 20.514168 4.584530
391 1 1 0.031527 25.367970 22.587180 20.514168
392 1 1 0.031527 4.584530 7.365320 20.514168
393 1 1 0.031527 4.584530 22.587180 9.438332
394 1 1 0.031527 25.367970 7.365320 9.438332
395 1 1 0.031527 20.514168 25.367970 22.587180
396 1 1 0.031527 20.514168 4.584530 7.365320
397 1 1 0.031527 9.438332 4.584530 22.587180
398 1 1 0.031527 9.438332 25.367970 7.365320
399 1 1 0.031527 22.587180 20.514168 25.367970
400 1 1 0.031527 7.365320 20.514168 4.584530
401 1 1 0.031527 22.587180 9.438332 4.584530
402 1 1 0.031527 7.365320 9.438332 25.367970
403 1 1 -0.038055 3.591604 6.417623 11.396627
404 1 1 -0.038055 26.360896 23.534877 11.396627
405 1 1 -0.038055 26.360896 6.417623 18.555873
406 1 1 -0.038055 3.591604 23.534877 18.555873
407 1 1 -0.038055 11.396627 3.591604 6.417623
408 1 1 -0.038055 11.396627 26.360896 23.534877
409 1 1 -0.038055 18.555873 26.360896 6.417623
410 1 1 -0.038055 18.555873 3.591604 23.534877
411 1 1 -0.038055 6.417623 11.396627 3.591604
412 1 1 -0.038055 23.534877 11.396627 26.360896
413 1 1 -0.038055 6.417623 18.555873 26.360896
414 1 1 -0.038055 23.534877 18.555873 3.591604
415 1 1 -0.038055 26.360896 23.534877 18.555873
416 1 1 -0.038055 3.591604 6.417623 18.555873
417 1 1 -0.038055 3.591604 23.534877 11.396627
418 1 1 -0.038055 26.360896 6.417623 11.396627
419 1 1 -0.038055 18.555873 26.360896 23.534877
420 1 1 -0.038055 18.555873 3.591604 6.417623
421 1 1 -0.038055 11.396627 3.591604 23.534877
422 1 1 -0.038055 11.396627 26.360896 6.417623
423 1 1 -0.038055 23.534877 18.555873 26.360896
424 1 1 -0.038055 6.417623 18.555873 3.591604
425 1 1 -0.038055 23.534877 11.396627 3.591604
426 1 1 -0.038055 6.417623 11.396627 26.360896
427 1 1 -0.100942 4.586626 5.452553 11.411903
428 1 1 -0.100942 25.365874 24.499947 11.411903
429 1 1 -0.100942 25.365874 5.452553 18.540598
430 1 1 -0.100942 4.586626 24.499947 18.540598
431 1 1 -0.100942 11.411903 4.586626 5.452553
432 1 1 -0.100942 11.411903 25.365874 24.499947
433 1 1 -0.100942 18.540598 25.365874 5.452553
434 1 1 -0.100942 18.540598 4.586626 24.499947
435 1 1 -0.100942 5.452553 11.411903 4.586626
436 1 1 -0.100942 24.499947 11.411903 25.365874
437 1 1 -0.100942 5.452553 18.540598 25.365874
438 1 1 -0.100942 24.499947 18.540598 4.586626
439 1 1 -0.100942 25.365874 24.499947 18.540598
440 1 1 -0.100942 4.586626 5.452553 18.540598
441 1 1 -0.100942 4.586626 24.499947 11.411903
442 1 1 -0.100942 25.365874 5.452553 11.411903
443 1 1 -0.100942 18.540598 25.365874 24.499947
444 1 1 -0.100942 18.540598 4.586626 5.452553
445 1 1 -0.100942 11.411903 4.586626 24.499947
446 1 1 -0.100942 11.411903 25.365874 5.452553
447 1 1 -0.100942 24.499947 18.540598 25.365874
448 1 1 -0.100942 5.452553 18.540598 4.586626
449 1 1 -0.100942 24.499947 11.411903 4.586626
450 1 1 -0.100942 5.452553 11.411903 25.365874
451 1 1 -0.020374 6.004278 7.799931 7.619317
452 1 1 -0.020374 23.948222 22.152569 7.619317
453 1 1 -0.020374 23.948222 7.799931 22.333183
454 1 1 -0.020374 6.004278 22.152569 22.333183
455 1 1 -0.020374 7.619317 6.004278 7.799931
456 1 1 -0.020374 7.619317 23.948222 22.152569
457 1 1 -0.020374 22.333183 23.948222 7.799931
458 1 1 -0.020374 22.333183 6.004278 22.152569
459 1 1 -0.020374 7.799931 7.619317 6.004278
460 1 1 -0.020374 22.152569 7.619317 23.948222
461 1 1 -0.020374 7.799931 22.333183 23.948222
462 1 1 -0.020374 22.152569 22.333183 6.004278
463 1 1 -0.020374 23.948222 22.152569 22.333183
464 1 1 -0.020374 6.004278 7.799931 22.333183
465 1 1 -0.020374 6.004278 22.152569 7.619317
466 1 1 -0.020374 23.948222 7.799931 7.619317
467 1 1 -0.020374 22.333183 23.948222 22.152569
468 1 1 -0.020374 22.333183 6.004278 7.799931
469 1 1 -0.020374 7.619317 6.004278 22.152569
470 1 1 -0.020374 7.619317 23.948222 7.799931
471 1 1 -0.020374 22.152569 22.333183 23.948222
472 1 1 -0.020374 7.799931 22.333183 6.004278
473 1 1 -0.020374 22.152569 7.619317 6.004278
474 1 1 -0.020374 7.799931 7.619317 23.948222
475 1 1 -0.059908 0.000000 11.448744 14.976250
476 1 1 -0.059908 0.000000 18.503756 14.976250
477 1 1 -0.059908 14.976250 0.000000 11.448744
478 1 1 -0.059908 14.976250 0.000000 18.503756
479 1 1 -0.059908 11.448744 14.976250 0.000000
480 1 1 -0.059908 18.503756 14.976250 0.000000
481 1 1 -0.028619 6.485315 6.657842 8.279470
482 1 1 -0.028619 23.467185 23.294658 8.279470
483 1 1 -0.028619 23.467185 6.657842 21.673030
484 1 1 -0.028619 6.485315 23.294658 21.673030
485 1 1 -0.028619 8.279470 6.485315 6.657842
486 1 1 -0.028619 8.279470 23.467185 23.294658
487 1 1 -0.028619 21.673030 23.467185 6.657842
488 1 1 -0.028619 21.673030 6.485315 23.294658
489 1 1 -0.028619 6.657842 8.279470 6.485315
490 1 1 -0.028619 23.294658 8.279470 23.467185
491 1 1 -0.028619 6.657842 21.673030 23.467185
492 1 1 -0.028619 23.294658 21.673030 6.485315
493 1 1 -0.028619 23.467185 23.294658 21.673030
494 1 1 -0.028619 6.485315 6.657842 21.673030
495 1 1 -0.028619 6.485315 23.294658 8.279470
496 1 1 -0.028619 23.467185 6.657842 8.279470
497 1 1 -0.028619 21.673030 23.467185 23.294658
498 1 1 -0.028619 21.673030 6.485315 6.657842
499 1 1 -0.028619 8.279470 6.485315 23.294658
500 1 1 -0.028619 8.279470 23.467185 6.657842
501 1 1 -0.028619 23.294658 21.673030 23.467185
502 1 1 -0.028619 6.657842 21.673030 6.485315
503 1 1 -0.028619 23.294658 8.279470 6.485315
504 1 1 -0.028619 6.657842 8.279470 23.467185
505 1 1 -0.161535 5.573861 5.430987 10.441741
506 1 1 -0.161535 24.378639 24.521513 10.441741
507 1 1 -0.161535 24.378639 5.430987 19.510759
508 1 1 -0.161535 5.573861 24.521513 19.510759
509 1 1 -0.161535 10.441741 5.573861 5.430987
510 1 1 -0.161535 10.441741 24.378639 24.521513
511 1 1 -0.161535 19.510759 24.378639 5.430987
512 1 1 -0.161535 19.510759 5.573861 24.521513
513 1 1 -0.161535 5.430987 10.441741 5.573861
514 1 1 -0.161535 24.521513 10.441741 24.378639
515 1 1 -0.161535 5.430987 19.510759 24.378639
516 1 1 -0.161535 24.521513 19.510759 5.573861
517 1 1 -0.161535 24.378639 24.521513 19.510759
518 1 1 -0.161535 5.573861 5.430987 19.510759
519 1 1 -0.161535 5.573861 24.521513 10.441741
520 1 1 -0.161535 24.378639 5.430987 10.441741
521 1 1 -0.161535 19.510759 24.378639 24.521513
522 1 1 -0.161535 19.510759 5.573861 5.430987
523 1 1 -0.161535 10.441741 5.573861 24.521513
524 1 1 -0.161535 10.441741 24.378639 5.430987
525 1 1 -0.161535 24.521513 19.510759 24.378639
526 1 1 -0.161535 5.430987 19.510759 5.573861
527 1 1 -0.161535 24.521513 10.441741 5.573861
528 1 1 -0.161535 5.430987 10.441741 24.378639
529 1 1 0.196948 4.746273 8.345366 8.300437
530 1 1 0.196948 25.206227 21.607134 8.300437
531 1 1 0.196948 25.206227 8.345366 21.652063
532 1 1 0.196948 4.746273 21.607134 21.652063
533 1 1 0.196948 8.300437 4.746273 8.345366
534 1 1 0.196948 8.300437 25.206227 21.607134
535 1 1 0.196948 21.652063 25.206227 8.345366
536 1 1 0.196948 21.652063 4.746273 21.607134
537 1 1 0.196948 8.345366 8.300437 4.746273
538 1 1 0.196948 21.607134 8.300437 25.206227
539 1 1 0.196948 8.345366 21.652063 25.206227
540 1 1 0.196948 21.607134 21.652063 4.746273
541 1 1 0.196948 25.206227 21.607134 21.652063
542 1 1 0.196948 4.746273 8.345366 21.652063
543 1 1 0.196948 4.746273 21.607134 8.300437
544 1 1 0.196948 25.206227 8.345366 8.300437
545 1 1 0.196948 21.652063 25.206227 21.607134
546 1 1 0.196948 21.652063 4.746273 8.345366
547 1 1 0.196948 8.300437 4.746273 21.607134
548 1 1 0.196948 8.300437 25.206227 8.345366
549 1 1 0.196948 21.607134 21.652063 25.206227
550 1 1 0.196948 8.345366 21.652063 4.746273
551 1 1 0.196948 21.607134 8.300437 4.746273
552 1 1 0.196948 8.345366 8.300437 25.206227
553 1 1 -0.443744 3.512530 8.268987 7.403958
554 1 1 -0.443744 26.439970 21.683513 7.403958
555 1 1 -0.443744 26.439970 8.268987 22.548542
556 1 1 -0.445107 3.512530 21.683513 22.548542
557 1 1 -0.443744 7.403958 3.512530 8.268987
558 1 1 -0.445107 7.403958 26.439970 21.683513
559 1 1 -0.443744 22.548542 26.439970 8.268987
560 1 1 -0.443744 22.548542 3.512530 21.683513
561 1 1 -0.443744 8.268987 7.403958 3.512530
562 1 1 -0.443744 21.683513 7.403958 26.439970
563 1 1 -0.445107 8.268987 22.548542 26.439970
564 1 1 -0.443744 21.683513 22.548542 3.512530
565 1 1 -0.443744 26.439970 21.683513 22.548542
566 1 1 -0.443744 3.512530 8.268987 22.548542
567 1 1 -0.443744 3.512530 21.683513 7.403958
568 1 1 -0.443744 26.439970 8.268987 7.403958
569 1 1 -0.443744 22.548542 26.439970 21.683513
570 1 1 -0.443744 22.548542 3.512530 8.268987
571 1 1 -0.443744 7.403958 3.512530 21.683513
572 1 1 -0.445107 7.403958 26.439970 8.268987
573 1 1 -0.443744 21.683513 22.548542 26.439970
574 1 1 -0.443744 8.268987 22.548542 3.512530
575 1 1 -0.443744 21.683513 7.403958 3.512530
576 1 1 -0.443744 8.268987 7.403958 26.439970
577 1 1 -0.443744 4.981999 9.737857 8.901583
578 1 1 -0.443744 24.970501 20.214643 8.901583
579 1 1 -0.443744 24.970501 9.737857 21.050917
580 1 1 -0.443744 4.981999 20.214643 21.050917
581 1 1 -0.443744 8.901583 4.981999 9.737857
582 1 1 -0.443744 8.901583 24.970501 20.214643
583 1 1 -0.443744 21.050917 24.970501 9.737857
584 1 1 -0.443744 21.050917 4.981999 20.214643
585 1 1 -0.443744 9.737857 8.901583 4.981999
586 1 1 -0.443744 20.214643 8.901583 24.970501
587 1 1 -0.443744 9.737857 21.050917 24.970501
588 1 1 -0.443744 20.214643 21.050917 4.981999
589 1 1 -0.443744 24.970501 20.214643 21.050917
590 1 1 -0.443744 4.981999 9.737857 21.050917
591 1 1 -0.443744 4.981999 20.214643 8.901583
592 1 1 -0.443744 24.970501 9.737857 8.901583
593 1 1 -0.443744 21.050917 24.970501 20.214643
594 1 1 -0.443744 21.050917 4.981999 9.737857
595 1 1 -0.443744 8.901583 4.981999 20.214643
596 1 1 -0.443744 8.901583 24.970501 9.737857
597 1 1 -0.443744 20.214643 21.050917 24.970501
598 1 1 -0.443744 9.737857 21.050917 4.981999
599 1 1 -0.443744 20.214643 8.901583 4.981999
600 1 1 -0.443744 9.737857 8.901583 24.970501
601 1 1 0.081467 0.000000 14.230133 14.976250
602 1 1 0.081467 0.000000 15.722367 14.976250
603 1 1 0.081467 14.976250 0.000000 14.230133
604 1 1 0.081467 14.976250 0.000000 15.722367
605 1 1 0.081467 14.230133 14.976250 0.000000
606 1 1 0.081467 15.722367 14.976250 0.000000
607 1 1 -0.090213 0.000000 12.141545 13.832064
608 1 1 -0.090213 0.000000 17.810955 13.832064
609 1 1 -0.090213 0.000000 12.141545 16.120435
610 1 1 -0.090213 0.000000 17.810955 16.120435
611 1 1 -0.090213 13.832064 0.000000 12.141545
612 1 1 -0.090213 13.832064 0.000000 17.810955
613 1 1 -0.090213 16.120435 0.000000 12.141545
614 1 1 -0.090213 16.120435 0.000000 17.810955
615 1 1 -0.090213 12.141545 13.832064 0.000000
616 1 1 -0.090213 17.810955 13.832064 0.000000
617 1 1 -0.090213 12.141545 16.120435 0.000000
618 1 1 -0.090213 17.810955 16.120435 0.000000
619 1 1 -0.161535 0.000000 13.533438 13.838355
620 1 1 -0.161535 0.000000 16.419062 13.838355
621 1 1 -0.161535 0.000000 13.533438 16.114145
622 1 1 -0.161535 0.000000 16.419062 16.114145
623 1 1 -0.161535 13.838355 0.000000 13.533438
624 1 1 -0.161535 13.838355 0.000000 16.419062
625 1 1 -0.161535 16.114145 0.000000 13.533438
626 1 1 -0.161535 16.114145 0.000000 16.419062
627 1 1 -0.161535 13.533438 13.838355 0.000000
628 1 1 -0.161535 16.419062 13.838355 0.000000
629 1 1 -0.161535 13.533438 16.114145 0.000000
630 1 1 -0.161535 16.419062 16.114145 0.000000
631 1 3 -1.037551 0.000000 6.420917 14.976250
632 1 3 -1.037551 0.000000 23.531583 14.976250
633 1 3 -1.037551 14.976250 0.000000 6.420917
634 1 3 -1.037551 14.976250 0.000000 23.531583
635 1 3 -1.037551 6.420917 14.976250 0.000000
636 1 3 -1.037551 23.531583 14.976250 0.000000