# LAMMPS data file for MOF_5514
# Cell parameters: a=13.167 b=17.558 c=13.564
# Cell angles: alpha=90.0° beta=90.0° gamma=90.0°
# <<Zeo++>>
# Framework_density: 1.383373 g/cm3
# Accessible_surface_area: 1477.120000 m2/g
# Void_fraction: 0.142440
# Accessible_volume: 0.102963 cm3/g
# Largest_included_sphere_diameter: 5.405410 A
# Largest_free_sphere_diameter: 4.851150 A
# Pore_limiting_diameter: 5.384980 A
# <<Zeo++>>
188 atoms
0 bonds
0 angles
0 dihedrals
0 impropers

7 atom types

0.0 13.167000 xlo xhi
0.0 17.558000 ylo yhi
0.0 13.564000 zlo zhi

Masses

1 12.011  # C
2 40.078  # Ca
3 1.008  # H
4 15.999  # O
5 65.380  # Zn
6 2.016  # H2 (GCMC insert - neutral charge)
7 16.043  # CH4 (GCMC insert - neutral charge)

Atoms  

1 1 2 1.371178 0.000000 11.847436 10.173000
2 1 2 1.371178 6.583500 3.068436 10.173000
3 1 2 1.371178 0.000000 5.710564 3.391000
4 1 2 1.371178 6.583500 14.489564 3.391000
5 1 5 0.819705 10.567834 10.617323 12.603398
6 1 5 0.819705 3.984334 1.838323 12.603398
7 1 5 0.819705 2.599166 6.940677 5.821398
8 1 5 0.819705 9.182666 15.719677 5.821398
9 1 5 0.819705 2.599166 10.617323 7.742602
10 1 5 0.819705 9.182666 1.838323 7.742602
11 1 5 0.819705 10.567834 6.940677 0.960602
12 1 5 0.819705 3.984334 15.719677 0.960602
13 1 3 0.118732 8.590151 13.793565 13.096042
14 1 3 0.118732 7.125980 17.305165 11.808818
15 1 3 0.108442 10.380863 15.702119 10.040073
16 1 3 0.337166 8.420296 10.734961 0.440830
17 1 3 0.337166 9.372271 10.146768 1.200414
18 1 3 0.118732 2.006651 5.014565 13.096042
19 1 3 0.118732 0.542480 8.526165 11.808818
20 1 3 0.108442 3.797363 6.923119 10.040073
21 1 3 0.337166 1.836797 1.955961 0.440830
22 1 3 0.337166 2.788771 1.367768 1.200414
23 1 3 0.118732 4.576849 3.764435 6.314042
24 1 3 0.118732 6.041020 0.252835 5.026818
25 1 3 0.108442 2.786137 1.855881 3.258073
26 1 3 0.337166 4.746703 6.823039 7.222830
27 1 3 0.337166 3.794729 7.411232 7.982414
28 1 3 0.118732 11.160349 12.543435 6.314042
29 1 3 0.118732 12.624520 9.031835 5.026818
30 1 3 0.108442 9.369637 10.634881 3.258073
31 1 3 0.337166 11.330203 15.602039 7.222830
32 1 3 0.337166 10.378229 16.190232 7.982414
33 1 3 0.118732 4.576849 13.793565 7.249958
34 1 3 0.118732 6.041020 17.305165 8.537182
35 1 3 0.108442 2.786137 15.702119 10.305927
36 1 3 0.337166 4.746703 10.734961 6.341170
37 1 3 0.337166 3.794729 10.146768 5.581586
38 1 3 0.118732 11.160349 5.014565 7.249958
39 1 3 0.118732 12.624520 8.526165 8.537182
40 1 3 0.108442 9.369637 6.923119 10.305927
41 1 3 0.337166 11.330203 1.955961 6.341170
42 1 3 0.337166 10.378229 1.367768 5.581586
43 1 3 0.118732 8.590151 3.764435 0.467958
44 1 3 0.118732 7.125980 0.252835 1.755182
45 1 3 0.108442 10.380863 1.855881 3.523927
46 1 3 0.337166 8.420296 6.823039 13.123170
47 1 3 0.337166 9.372271 7.411232 12.363586
48 1 3 0.118732 2.006651 12.543435 0.467958
49 1 3 0.118732 0.542480 9.031835 1.755182
50 1 3 0.108442 3.797363 10.634881 3.523927
51 1 3 0.337166 1.836797 15.602039 13.123170
52 1 3 0.337166 2.788771 16.190232 12.363586
53 1 1 -0.039281 9.609277 14.553826 11.532113
54 1 1 -0.147313 8.625702 14.513443 12.506008
55 1 1 -0.021413 7.696111 15.531104 12.607738
56 1 1 -0.113059 7.755363 16.623563 11.743711
57 1 1 -0.021413 8.760005 16.687123 10.784736
58 1 1 -0.147313 9.702762 15.654713 10.674868
59 1 1 0.477297 10.515166 13.366905 11.370701
60 1 1 0.588686 6.625634 15.406969 0.090879
61 1 1 0.588686 8.811356 0.308318 9.862384
62 1 1 -0.039281 3.025777 5.774826 11.532113
63 1 1 -0.147313 2.042202 5.734443 12.506008
64 1 1 -0.021413 1.112612 6.752104 12.607738
65 1 1 -0.113059 1.171863 7.844563 11.743711
66 1 1 -0.021413 2.176505 7.908123 10.784736
67 1 1 -0.147313 3.119262 6.875713 10.674868
68 1 1 0.477297 3.931666 4.587905 11.370701
69 1 1 0.588686 0.042134 6.627969 0.090879
70 1 1 0.588686 2.227856 9.087318 9.862384
71 1 1 -0.039281 3.557723 3.004174 4.750113
72 1 1 -0.147313 4.541298 3.044557 5.724008
73 1 1 -0.021413 5.470889 2.026896 5.825738
74 1 1 -0.113059 5.411637 0.934437 4.961711
75 1 1 -0.021413 4.406995 0.870877 4.002736
76 1 1 -0.147313 3.464238 1.903287 3.892868
77 1 1 0.477297 2.651834 4.191095 4.588701
78 1 1 0.588686 6.541366 2.151031 6.872879
79 1 1 0.588686 4.355644 17.249682 3.080384
80 1 1 -0.039281 10.141223 11.783174 4.750113
81 1 1 -0.147313 11.124798 11.823557 5.724008
82 1 1 -0.021413 12.054388 10.805896 5.825738
83 1 1 -0.113059 11.995137 9.713437 4.961711
84 1 1 -0.021413 10.990495 9.649877 4.002736
85 1 1 -0.147313 10.047738 10.682287 3.892868
86 1 1 0.477297 9.235334 12.970095 4.588701
87 1 1 0.588686 13.124866 10.930031 6.872879
88 1 1 0.588686 10.939144 8.470682 3.080384
89 1 1 -0.039281 3.557723 14.553826 8.813887
90 1 1 -0.147313 4.541298 14.513443 7.839992
91 1 1 -0.021413 5.470889 15.531104 7.738262
92 1 1 -0.113059 5.411637 16.623563 8.602289
93 1 1 -0.021413 4.406995 16.687123 9.561264
94 1 1 -0.147313 3.464238 15.654713 9.671132
95 1 1 0.477297 2.651834 13.366905 8.975299
96 1 1 0.588686 6.541366 15.406969 6.691121
97 1 1 0.588686 4.355644 0.308318 10.483616
98 1 1 -0.034595 10.141223 5.774826 8.813887
99 1 1 -0.147313 11.124798 5.734443 7.839992
100 1 1 -0.021413 12.054388 6.752104 7.738262
101 1 1 -0.113059 11.995137 7.844563 8.602289
102 1 1 -0.021413 10.990495 7.908123 9.561264
103 1 1 -0.147313 10.047738 6.875713 9.671132
104 1 1 0.477297 9.235334 4.587905 8.975299
105 1 1 0.588686 13.124866 6.627969 6.691121
106 1 1 0.588686 10.939144 9.087318 10.483616
107 1 1 -0.034595 9.609277 3.004174 2.031887
108 1 1 -0.147313 8.625702 3.044557 1.057992
109 1 1 -0.021413 7.696111 2.026896 0.956262
110 1 1 -0.113059 7.755363 0.934437 1.820289
111 1 1 -0.021413 8.760005 0.870877 2.779264
112 1 1 -0.147313 9.702762 1.903287 2.889132
113 1 1 0.477297 10.515166 4.191095 2.193299
114 1 1 0.588686 6.625634 2.151031 13.473121
115 1 1 0.588686 8.811356 17.249682 3.701616
116 1 1 -0.039281 3.025777 11.783174 2.031887
117 1 1 -0.147313 2.042202 11.823557 1.057992
118 1 1 -0.021413 1.112612 10.805896 0.956262
119 1 1 -0.113059 1.171863 9.713437 1.820289
120 1 1 -0.021413 2.176505 9.649877 2.779264
121 1 1 -0.147313 3.119262 10.682287 2.889132
122 1 1 0.477297 3.931666 12.970095 2.193299
123 1 1 0.588686 0.042134 10.930031 13.473121
124 1 1 0.588686 2.227856 8.470682 3.701616
125 1 4 -0.542666 11.464639 13.404480 10.580327
126 1 4 -0.644092 6.838808 14.701489 1.093530
127 1 4 -0.575548 5.540147 16.024133 13.416424
128 1 4 -0.625344 8.055176 1.268390 10.032748
129 1 4 -0.566564 9.638244 0.283562 8.889846
130 1 4 -0.618615 9.234675 10.473347 0.521400
131 1 4 -0.542666 4.881139 4.625480 10.580327
132 1 4 -0.644092 0.255308 5.922489 1.093530
133 1 4 -0.575548 12.123647 7.245133 13.416424
134 1 4 -0.625344 1.471676 10.047390 10.032748
135 1 4 -0.566564 3.054744 9.062562 8.889846
136 1 4 -0.618615 2.651175 1.694347 0.521400
137 1 4 -0.542666 1.702361 4.153520 3.798327
138 1 4 -0.644092 6.328192 2.856511 7.875530
139 1 4 -0.575548 7.626853 1.533867 6.634424
140 1 4 -0.625344 5.111824 16.289610 3.250748
141 1 4 -0.566564 3.528756 17.274438 2.107846
142 1 4 -0.618615 3.932325 7.084653 7.303400
143 1 4 -0.542666 8.285861 12.932520 3.798327
144 1 4 -0.644092 12.911692 11.635511 7.875530
145 1 4 -0.575548 1.043353 10.312867 6.634424
146 1 4 -0.625344 11.695324 7.510610 3.250748
147 1 4 -0.566564 10.112256 8.495438 2.107846
148 1 4 -0.618615 10.515825 15.863653 7.303400
149 1 4 -0.542666 1.702361 13.404480 9.765673
150 1 4 -0.644092 6.328192 14.701489 5.688470
151 1 4 -0.575548 7.626853 16.024133 6.929576
152 1 4 -0.625344 5.111824 1.268390 10.313252
153 1 4 -0.566564 3.528756 0.283562 11.456154
154 1 4 -0.618615 3.932325 10.473347 6.260600
155 1 4 -0.542666 8.285861 4.625480 9.765673
156 1 4 -0.644092 12.911692 5.922489 5.688470
157 1 4 -0.575548 1.043353 7.245133 6.929576
158 1 4 -0.625344 11.695324 10.047390 10.313252
159 1 4 -0.566564 10.112256 9.062562 11.456154
160 1 4 -0.618615 10.515825 1.694347 6.260600
161 1 4 -0.542666 11.464639 4.153520 2.983673
162 1 4 -0.644092 6.838808 2.856511 12.470470
163 1 4 -0.575548 5.540147 1.533867 0.147576
164 1 4 -0.625344 8.055176 16.289610 3.531252
165 1 4 -0.566564 9.638244 17.274438 4.674154
166 1 4 -0.618615 9.234675 7.084653 13.042600
167 1 4 -0.542666 4.881139 12.932520 2.983673
168 1 4 -0.644092 0.255308 11.635511 12.470470
169 1 4 -0.575548 12.123647 10.312867 0.147576
170 1 4 -0.625344 1.471676 7.510610 3.531252
171 1 4 -0.566564 3.054744 8.495438 4.674154
172 1 4 -0.618615 2.651175 15.863653 13.042600
173 1 4 -0.045128 10.466712 12.529213 12.224555
174 1 4 -0.077279 9.999415 12.304120 11.985557
175 1 4 -0.039281 3.883212 3.750213 12.224555
176 1 4 -0.077279 3.415915 3.525120 11.985557
177 1 4 -0.039281 2.700288 5.028787 5.442555
178 1 4 -0.077279 3.167585 5.253880 5.203557
179 1 4 -0.039281 9.283788 13.807787 5.442555
180 1 4 -0.077279 9.751085 14.032880 5.203557
181 1 4 -0.039281 2.700288 12.529213 8.121445
182 1 4 -0.077279 3.167585 12.304120 8.360443
183 1 4 -0.045128 9.283788 3.750213 8.121445
184 1 4 -0.077279 9.751085 3.525120 8.360443
185 1 4 -0.045128 10.466712 5.028787 1.339445
186 1 4 -0.077279 9.999415 5.253880 1.578443
187 1 4 -0.039281 3.883212 13.807787 1.339445
188 1 4 -0.077279 3.415915 14.032880 1.578443
