LAMMPS (7 Feb 2024 - Update 1)
  using 1 OpenMP thread(s) per MPI task
# GCMC: 98.0% H₂ / 2.0% CH₄ at 60 bar, 298 K
units real
atom_style full
boundary p p p

read_data "structure.data"
Reading data file ...
  orthogonal box = (0 0 0) to (9.6256 21.2843 15.4627)
  1 by 4 by 2 MPI processor grid
  reading atoms ...
  292 atoms
Finding 1-2 1-3 1-4 neighbors ...
  special bond factors lj:    0        0        0       
  special bond factors coul:  0        0        0       
     0 = max # of 1-2 neighbors
     0 = max # of 1-3 neighbors
     0 = max # of 1-4 neighbors
     1 = max # of special neighbors
  special bonds CPU = 0.000 seconds
  read_data CPU = 0.004 seconds

timestep 1.0

pair_style lj/cut/coul/long 12.0
kspace_style pppm 1e-5
pair_coeff 1 1 0.104924 3.431000  # C
pair_coeff 2 2 0.043997 2.571000  # H
pair_coeff 3 3 0.068956 3.261000  # N
pair_coeff 4 4 0.060014 3.118000  # O
pair_coeff 5 5 0.313541 3.595000  # S
pair_coeff 6 6 0.123962 2.462000  # Zn

# Gas parameters
pair_coeff 7 7 0.072930 2.958000
pair_coeff 8 8 0.294106 3.730000

pair_modify mix geometric tail yes

# Groups
group framework type 1:6
292 atoms in group framework
group h2 type 7
0 atoms in group h2
group ch4 type 8
0 atoms in group ch4
group gases type 7 8
0 atoms in group gases

# Freeze framework
fix freeze framework setforce 0.0 0.0 0.0

# Counting
compute type_counts all count/type atom
variable n_h2 equal c_type_counts[7]
variable n_ch4 equal c_type_counts[8]

# Temperature monitoring
compute temp_gases gases temp
compute_modify temp_gases dynamic yes

# Chemical potentials
variable mu_h2 equal 2.423137
variable mu_ch4 equal 0.106391

# Initialize framework at target temperature
velocity framework create 298 98765 dist gaussian
velocity framework scale 298

# GCMC
fix gcmc_h2 gases gcmc 1000 5 0 7 54321 298 ${mu_h2} 0.2
fix gcmc_h2 gases gcmc 1000 5 0 7 54321 298 2.423137 0.2
fix gcmc_ch4 gases gcmc 1000 5 0 8 12345 298 ${mu_ch4} 0.2
fix gcmc_ch4 gases gcmc 1000 5 0 8 12345 298 0.106391 0.2

print "[INFO] Equilibration Phase"
[INFO] Equilibration Phase
thermo_style custom step temp pe ke v_n_h2 v_n_ch4 vol
thermo 5000
run 100000
WARNING: No fixes with time integration, atoms won't move (src/verlet.cpp:60)
PPPM initialization ...
WARNING: System is not charge neutral, net charge = 1e-05 (src/kspace.cpp:327)
  using 12-bit tables for long-range coulomb (src/kspace.cpp:342)
  G vector (1/distance) = 0.23368815
  grid = 6 10 8
  stencil order = 5
  estimated absolute RMS force accuracy = 0.0018665473
  estimated relative force accuracy = 5.6210518e-06
  using double precision FFTW3
  3d grid and FFT values/proc = 1144 72
Generated 28 of 28 mixed pair_coeff terms from geometric mixing rule
WARNING: Fix gcmc using full_energy option (src/MC/fix_gcmc.cpp:539)
0 atoms in group FixGCMC:gcmc_exclusion_group:gcmc_h2
WARNING: Fix gcmc using full_energy option (src/MC/fix_gcmc.cpp:539)
0 atoms in group FixGCMC:gcmc_exclusion_group:gcmc_ch4
WARNING: Neighbor exclusions used with KSpace solver may give inconsistent Coulombic energies (src/neighbor.cpp:651)
Neighbor list info ...
  update: every = 1 steps, delay = 0 steps, check = yes
  max neighbors/atom: 2000, page size: 100000
  master list distance cutoff = 14
  ghost atom cutoff = 14
  binsize = 7, bins = 2 4 3
  1 neighbor lists, perpetual/occasional/extra = 1 0 0
  (1) pair lj/cut/coul/long, perpetual
      attributes: half, newton on
      pair build: half/bin/newton
      stencil: half/bin/3d
      bin: standard
Per MPI rank memory allocation (min/avg/max) = 6.538 | 6.539 | 6.54 Mbytes
   Step          Temp          PotEng         KinEng         v_n_h2        v_n_ch4         Volume    
         0   298            7.7136373e+09  258.48989      0              0              3167.9076    
      5000   298            7.7136373e+09  258.48989      0              0              3167.9076    
     10000   298            7.7136373e+09  258.48989      0              0              3167.9076    
     15000   298            7.7136373e+09  258.48989      0              0              3167.9076    
     20000   298            7.7136373e+09  258.48989      0              0              3167.9076    
     25000   298.07481      7.7136373e+09  258.55477      1              0              3167.9076    
     30000   299.00065      7.7136373e+09  259.35787      2              0              3167.9076    
     35000   299.73206      7.7136373e+09  259.9923       3              0              3167.9076    
     40000   299.73206      7.7136373e+09  259.9923       3              0              3167.9076    
     45000   299.73206      7.7136373e+09  259.9923       3              0              3167.9076    
     50000   299.00065      7.7136373e+09  259.35787      2              0              3167.9076    
     55000   299.51553      7.7136373e+09  259.80448      3              0              3167.9076    
     60000   300.20656      7.7136373e+09  260.40389      4              0              3167.9076    
     65000   299.69168      7.7136373e+09  259.95728      3              0              3167.9076    
     70000   299.69168      7.7136373e+09  259.95728      3              0              3167.9076    
     75000   299.69168      7.7136373e+09  259.95728      3              0              3167.9076    
     80000   299.69168      7.7136373e+09  259.95728      3              0              3167.9076    
     85000   299.69168      7.7136373e+09  259.95728      3              0              3167.9076    
     90000   299.69168      7.7136373e+09  259.95728      3              0              3167.9076    
     95000   300.54092      7.7136373e+09  260.69392      4              0              3167.9076    
    100000   300.54092      7.7136373e+09  260.69392      4              0              3167.9076    
Loop time of 42.3499 on 8 procs for 100000 steps with 296 atoms

Performance: 204.015 ns/day, 0.118 hours/ns, 2361.282 timesteps/s, 698.940 katom-step/s
89.0% CPU use with 8 MPI tasks x 1 OpenMP threads

MPI task timing breakdown:
Section |  min time  |  avg time  |  max time  |%varavg| %total
---------------------------------------------------------------
Pair    | 18.429     | 19.43      | 21.969     |  27.1 | 45.88
Bond    | 0.0035635  | 0.0038991  | 0.0044251  |   0.4 |  0.01
Kspace  | 7.0165     | 8.9622     | 11.42      |  48.3 | 21.16
Neigh   | 0.060045   | 0.066779   | 0.071473   |   1.5 |  0.16
Comm    | 9.7768     | 10.744     | 11.835     |  21.8 | 25.37
Output  | 0.00050217 | 0.00054215 | 0.00072632 |   0.0 |  0.00
Modify  | 1.8283     | 1.8326     | 1.8376     |   0.2 |  4.33
Other   |            | 1.31       |            |       |  3.09

Nlocal:             37 ave          40 max          35 min
Histogram: 2 0 2 0 0 0 3 0 0 1
Nghost:        4077.75 ave        4103 max        4064 min
Histogram: 2 2 0 1 1 0 0 0 1 1
Neighs:        19828.5 ave       21910 max       18549 min
Histogram: 1 1 1 3 0 0 1 0 0 1

Total # of neighbors = 158628
Ave neighs/atom = 535.90541
Ave special neighs/atom = 0
Neighbor list builds = 1189
Dangerous builds = 0

print "[INFO] Production Phase"
[INFO] Production Phase
run 100000
WARNING: No fixes with time integration, atoms won't move (src/verlet.cpp:60)
PPPM initialization ...
  using 12-bit tables for long-range coulomb (src/kspace.cpp:342)
  G vector (1/distance) = 0.23368808
  grid = 6 10 8
  stencil order = 5
  estimated absolute RMS force accuracy = 0.0018538949
  estimated relative force accuracy = 5.5829495e-06
  using double precision FFTW3
  3d grid and FFT values/proc = 1144 72
Generated 28 of 28 mixed pair_coeff terms from geometric mixing rule
WARNING: Neighbor exclusions used with KSpace solver may give inconsistent Coulombic energies (src/neighbor.cpp:651)
Per MPI rank memory allocation (min/avg/max) = 6.664 | 6.665 | 6.666 Mbytes
   Step          Temp          PotEng         KinEng         v_n_h2        v_n_ch4         Volume    
    100000   296.46579      7.7136373e+09  260.69392      4              0              3167.9076    
    105000   297.30351      7.7136373e+09  261.43056      5              0              3167.9076    
    110000   297.30351      7.7136373e+09  261.43056      5              0              3167.9076    
    115000   297.30351      7.7136373e+09  261.43056      5              0              3167.9076    
    120000   297.30351      7.7136373e+09  261.43056      5              0              3167.9076    
    125000   297.30351      7.7136373e+09  261.43056      5              0              3167.9076    
    130000   297.30351      7.7136373e+09  261.43056      5              0              3167.9076    
    135000   297.30351      7.7136373e+09  261.43056      5              0              3167.9076    
    140000   297.30351      7.7136373e+09  261.43056      5              0              3167.9076    
    145000   296.46579      7.7136373e+09  260.69392      4              0              3167.9076    
    150000   296.46579      7.7136373e+09  260.69392      4              0              3167.9076    
    155000   296.46579      7.7136373e+09  260.69392      4              0              3167.9076    
    160000   296.46579      7.7136373e+09  260.69392      4              0              3167.9076    
    165000   296.46579      7.7136373e+09  260.69392      4              0              3167.9076    
    170000   296.46579      7.7136373e+09  260.69392      4              0              3167.9076    
    175000   296.61082      7.7136373e+09  260.82145      5              0              3167.9076    
    180000   296.61082      7.7136373e+09  260.82145      5              0              3167.9076    
    185000   296.61082      7.7136373e+09  260.82145      5              0              3167.9076    
    190000   296.61082      7.7136373e+09  260.82145      5              0              3167.9076    
    195000   296.61082      7.7136373e+09  260.82145      5              0              3167.9076    
    200000   296.61082      7.7136373e+09  260.82145      5              0              3167.9076    
Loop time of 40.3784 on 8 procs for 100000 steps with 297 atoms

Performance: 213.976 ns/day, 0.112 hours/ns, 2476.574 timesteps/s, 735.543 katom-step/s
90.1% CPU use with 8 MPI tasks x 1 OpenMP threads

MPI task timing breakdown:
Section |  min time  |  avg time  |  max time  |%varavg| %total
---------------------------------------------------------------
Pair    | 18.687     | 19.865     | 22.554     |  30.2 | 49.20
Bond    | 0.0036155  | 0.0039644  | 0.0047399  |   0.6 |  0.01
Kspace  | 6.157      | 8.5194     | 10.348     |  43.7 | 21.10
Neigh   | 0.060542   | 0.067609   | 0.072242   |   1.5 |  0.17
Comm    | 8.6478     | 9.0836     | 9.5039     |  11.4 | 22.50
Output  | 0.00045787 | 0.0004931  | 0.0006792  |   0.0 |  0.00
Modify  | 1.927      | 1.9296     | 1.9315     |   0.1 |  4.78
Other   |            | 0.9088     |            |       |  2.25

Nlocal:         37.125 ave          39 max          35 min
Histogram: 2 0 1 0 0 1 0 2 0 2
Nghost:        4092.62 ave        4103 max        4081 min
Histogram: 2 0 0 0 1 1 1 1 1 1
Neighs:        19962.2 ave       21391 max       18603 min
Histogram: 1 0 1 1 3 0 0 0 0 2

Total # of neighbors = 159698
Ave neighs/atom = 537.7037
Ave special neighs/atom = 0
Neighbor list builds = 1300
Dangerous builds = 0

print "[INFO] Final H2: ${n_h2}"
[INFO] Final H2: 5
print "[INFO] Final CH4: ${n_ch4}"
[INFO] Final CH4: 0
print "[INFO] Completed"
[INFO] Completed
Total wall time: 0:01:22
