LAMMPS (7 Feb 2024 - Update 1)
  using 1 OpenMP thread(s) per MPI task
# GCMC: 90.0% H₂ / 10.0% CH₄ at 50 bar, 298 K
units real
atom_style full
boundary p p p

read_data "structure.data"
Reading data file ...
  orthogonal box = (0 0 0) to (10.5457 10.5457 10.5457)
  2 by 2 by 2 MPI processor grid
  reading atoms ...
  80 atoms
Finding 1-2 1-3 1-4 neighbors ...
  special bond factors lj:    0        0        0       
  special bond factors coul:  0        0        0       
     0 = max # of 1-2 neighbors
     0 = max # of 1-3 neighbors
     0 = max # of 1-4 neighbors
     1 = max # of special neighbors
  special bonds CPU = 0.000 seconds
  read_data CPU = 0.003 seconds

timestep 1.0

pair_style lj/cut/coul/long 12.0
kspace_style pppm 1e-5
pair_coeff 1 1 0.104924 3.431000  # C
pair_coeff 2 2 0.012996 2.594000  # Fe
pair_coeff 3 3 0.060014 3.118000  # O

# Gas parameters
pair_coeff 4 4 0.072930 2.958000
pair_coeff 5 5 0.294106 3.730000

pair_modify mix geometric tail yes

# Groups
group framework type 1:3
80 atoms in group framework
group h2 type 4
0 atoms in group h2
group ch4 type 5
0 atoms in group ch4
group gases type 4 5
0 atoms in group gases

# Freeze framework
fix freeze framework setforce 0.0 0.0 0.0

# Counting
compute type_counts all count/type atom
variable n_h2 equal c_type_counts[4]
variable n_ch4 equal c_type_counts[5]

# Temperature monitoring
compute temp_gases gases temp
compute_modify temp_gases dynamic yes

# Chemical potentials
variable mu_h2 equal 2.262132
variable mu_ch4 equal 0.946536

# Initialize framework at target temperature
velocity framework create 298 98765 dist gaussian
velocity framework scale 298

# GCMC
fix gcmc_h2 gases gcmc 1000 5 0 4 54321 298 ${mu_h2} 0.2
fix gcmc_h2 gases gcmc 1000 5 0 4 54321 298 2.262132 0.2
fix gcmc_ch4 gases gcmc 1000 5 0 5 12345 298 ${mu_ch4} 0.2
fix gcmc_ch4 gases gcmc 1000 5 0 5 12345 298 0.946536 0.2

print "[INFO] Equilibration Phase"
[INFO] Equilibration Phase
thermo_style custom step temp pe ke v_n_h2 v_n_ch4 vol
thermo 5000
run 100000
WARNING: No fixes with time integration, atoms won't move (src/verlet.cpp:60)
PPPM initialization ...
  using 12-bit tables for long-range coulomb (src/kspace.cpp:342)
  G vector (1/distance) = 0.25689586
  grid = 8 8 8
  stencil order = 5
  estimated absolute RMS force accuracy = 0.0010575056
  estimated relative force accuracy = 3.1846466e-06
  using double precision FFTW3
  3d grid and FFT values/proc = 1331 64
Generated 10 of 10 mixed pair_coeff terms from geometric mixing rule
WARNING: Fix gcmc using full_energy option (src/MC/fix_gcmc.cpp:539)
0 atoms in group FixGCMC:gcmc_exclusion_group:gcmc_h2
WARNING: Fix gcmc using full_energy option (src/MC/fix_gcmc.cpp:539)
0 atoms in group FixGCMC:gcmc_exclusion_group:gcmc_ch4
WARNING: Neighbor exclusions used with KSpace solver may give inconsistent Coulombic energies (src/neighbor.cpp:651)
Neighbor list info ...
  update: every = 1 steps, delay = 0 steps, check = yes
  max neighbors/atom: 2000, page size: 100000
  master list distance cutoff = 14
  ghost atom cutoff = 14
  binsize = 7, bins = 2 2 2
  1 neighbor lists, perpetual/occasional/extra = 1 0 0
  (1) pair lj/cut/coul/long, perpetual
      attributes: half, newton on
      pair build: half/bin/newton
      stencil: half/bin/3d
      bin: standard
Per MPI rank memory allocation (min/avg/max) = 6.448 | 6.448 | 6.448 Mbytes
   Step          Temp          PotEng         KinEng         v_n_h2        v_n_ch4         Volume    
         0   298            1434053.5      70.17423       0              0              1172.8062    
      5000   306.55863      1434053.8      72.189651      1              1              1172.8062    
     10000   316.95004      1434062.6      74.636662      3              1              1172.8062    
     15000   315.2407       1434056.5      74.23414       3              1              1172.8062    
     20000   316.33654      1434057.9      74.492192      4              1              1172.8062    
     25000   316.33654      1434057.9      74.492192      4              1              1172.8062    
     30000   316.33654      1434057.9      74.492192      4              1              1172.8062    
     35000   321.53734      1434059.3      75.716896      4              2              1172.8062    
     40000   329.93361      1434059.2      77.694084      5              1              1172.8062    
     45000   325.71628      1434054.9      76.70097       4              1              1172.8062    
     50000   325.71628      1434054.9      76.70097       4              1              1172.8062    
     55000   325.71628      1434054.9      76.70097       4              1              1172.8062    
     60000   325.71628      1434054.9      76.70097       4              1              1172.8062    
     65000   325.71628      1434054.9      76.70097       4              1              1172.8062    
     70000   328.44176      1434053.8      77.342777      5              1              1172.8062    
     75000   328.44176      1434053.8      77.342777      5              1              1172.8062    
     80000   329.37798      1434059.1      77.563242      6              1              1172.8062    
     85000   334.85481      1434057.5      78.852948      7              1              1172.8062    
     90000   338.80061      1434051.1      79.78212       7              1              1172.8062    
     95000   332.90414      1434046.2      78.393597      7              1              1172.8062    
    100000   337.78616      1434050.5      79.543234      8              1              1172.8062    
Loop time of 26.8766 on 8 procs for 100000 steps with 89 atoms

Performance: 321.469 ns/day, 0.075 hours/ns, 3720.704 timesteps/s, 331.143 katom-step/s
81.8% CPU use with 8 MPI tasks x 1 OpenMP threads

MPI task timing breakdown:
Section |  min time  |  avg time  |  max time  |%varavg| %total
---------------------------------------------------------------
Pair    | 1.5422     | 3.7324     | 6.4505     |  73.9 | 13.89
Bond    | 0.0033348  | 0.0034493  | 0.0035763  |   0.2 |  0.01
Kspace  | 7.2811     | 10.464     | 12.444     |  46.5 | 38.93
Neigh   | 0.010069   | 0.015125   | 0.021223   |   2.6 |  0.06
Comm    | 9.5531     | 10.624     | 11.629     |  19.9 | 39.53
Output  | 0.00047556 | 0.0005592  | 0.00072426 |   0.0 |  0.00
Modify  | 0.90111    | 0.90392    | 0.90613    |   0.2 |  3.36
Other   |            | 1.134      |            |       |  4.22

Nlocal:         11.125 ave          13 max           7 min
Histogram: 1 0 0 0 0 1 2 0 2 2
Nghost:        2703.38 ave        2712 max        2697 min
Histogram: 3 0 1 0 0 0 1 2 0 1
Neighs:        4881.88 ave        7368 max        1990 min
Histogram: 1 0 1 1 0 2 0 2 0 1

Total # of neighbors = 39055
Ave neighs/atom = 438.82022
Ave special neighs/atom = 0
Neighbor list builds = 1297
Dangerous builds = 0

print "[INFO] Production Phase"
[INFO] Production Phase
run 100000
WARNING: No fixes with time integration, atoms won't move (src/verlet.cpp:60)
PPPM initialization ...
  using 12-bit tables for long-range coulomb (src/kspace.cpp:342)
  G vector (1/distance) = 0.25687531
  grid = 8 8 8
  stencil order = 5
  estimated absolute RMS force accuracy = 0.0010031207
  estimated relative force accuracy = 3.0208682e-06
  using double precision FFTW3
  3d grid and FFT values/proc = 1331 64
Generated 10 of 10 mixed pair_coeff terms from geometric mixing rule
WARNING: Neighbor exclusions used with KSpace solver may give inconsistent Coulombic energies (src/neighbor.cpp:651)
Per MPI rank memory allocation (min/avg/max) = 6.577 | 6.577 | 6.577 Mbytes
   Step          Temp          PotEng         KinEng         v_n_h2        v_n_ch4         Volume    
    100000   303.23985      1434050.5      79.543234      8              1              1172.8062    
    105000   303.40443      1434049.4      79.586405      8              1              1172.8062    
    110000   303.40443      1434049.4      79.586405      8              1              1172.8062    
    115000   303.40443      1434049.4      79.586405      8              1              1172.8062    
    120000   303.40443      1434049.4      79.586405      8              1              1172.8062    
    125000   303.40443      1434049.4      79.586405      8              1              1172.8062    
    130000   303.40443      1434049.4      79.586405      8              1              1172.8062    
    135000   303.40443      1434049.4      79.586405      8              1              1172.8062    
    140000   303.40443      1434049.4      79.586405      8              1              1172.8062    
    145000   303.40443      1434049.4      79.586405      8              1              1172.8062    
    150000   303.40443      1434049.4      79.586405      8              1              1172.8062    
    155000   303.40443      1434049.4      79.586405      8              1              1172.8062    
    160000   303.40443      1434049.4      79.586405      8              1              1172.8062    
    165000   303.40443      1434049.4      79.586405      8              1              1172.8062    
    170000   303.40443      1434049.4      79.586405      8              1              1172.8062    
    175000   303.40443      1434049.4      79.586405      8              1              1172.8062    
    180000   303.40443      1434049.4      79.586405      8              1              1172.8062    
    185000   303.40443      1434049.4      79.586405      8              1              1172.8062    
    190000   300.79311      1434045.6      78.901428      7              1              1172.8062    
    195000   300.79311      1434045.6      78.901428      7              1              1172.8062    
    200000   300.79311      1434045.6      78.901428      7              1              1172.8062    
Loop time of 26.4937 on 8 procs for 100000 steps with 88 atoms

Performance: 326.115 ns/day, 0.074 hours/ns, 3774.475 timesteps/s, 332.154 katom-step/s
81.7% CPU use with 8 MPI tasks x 1 OpenMP threads

MPI task timing breakdown:
Section |  min time  |  avg time  |  max time  |%varavg| %total
---------------------------------------------------------------
Pair    | 1.7112     | 4.0362     | 6.2225     |  69.6 | 15.23
Bond    | 0.0033132  | 0.0034558  | 0.0035923  |   0.2 |  0.01
Kspace  | 7.6675     | 9.8794     | 12.274     |  45.2 | 37.29
Neigh   | 0.011061   | 0.016113   | 0.020582   |   2.5 |  0.06
Comm    | 9.7928     | 10.606     | 11.123     |  14.6 | 40.03
Output  | 0.00049737 | 0.00053517 | 0.00070967 |   0.0 |  0.00
Modify  | 0.88869    | 0.89232    | 0.8945     |   0.2 |  3.37
Other   |            | 1.059      |            |       |  4.00

Nlocal:             11 ave          13 max           7 min
Histogram: 1 0 0 0 0 2 1 0 2 2
Nghost:         2676.5 ave        2685 max        2670 min
Histogram: 3 0 1 0 0 0 1 1 1 1
Neighs:        4774.75 ave        7272 max        1953 min
Histogram: 1 0 1 1 0 2 0 1 1 1

Total # of neighbors = 38198
Ave neighs/atom = 434.06818
Ave special neighs/atom = 0
Neighbor list builds = 1300
Dangerous builds = 0

print "[INFO] Final H2: ${n_h2}"
[INFO] Final H2: 7
print "[INFO] Final CH4: ${n_ch4}"
[INFO] Final CH4: 1
print "[INFO] Completed"
[INFO] Completed
Total wall time: 0:00:53
