# LAMMPS data file for MOF_5891
# Cell parameters: a=30.756 b=30.756 c=30.756
# Cell angles: alpha=90.0° beta=90.0° gamma=90.0°
# <<Zeo++>>
# Framework_density: 1.401221 g/cm3
# Accessible_surface_area: 0.000000 m2/g
# Void_fraction: 0.000000
# Accessible_volume: 0.000000 cm3/g
# Largest_included_sphere_diameter: 6.096230 A
# Largest_free_sphere_diameter: 1.597780 A
# Pore_limiting_diameter: 6.096230 A
# <<Zeo++>>
2544 atoms
0 bonds
0 angles
0 dihedrals
0 impropers

9 atom types

0.0 30.756100 xlo xhi
0.0 30.756100 ylo yhi
0.0 30.756100 zlo zhi

Masses

1 12.011  # C
2 35.450  # Cl
3 1.008  # H
4 14.007  # N
5 15.999  # O
6 28.085  # Si
7 65.380  # Zn
8 2.016  # H2 (GCMC insert - neutral charge)
9 16.043  # CH4 (GCMC insert - neutral charge)

Atoms  

1 1 7 0.802359 5.273441 3.844512 2.415584
2 1 7 0.469064 3.844512 28.340516 10.104609
3 1 7 0.826624 10.104609 26.911587 17.793634
4 1 7 0.604757 11.533537 2.415584 25.482659
5 1 7 0.481316 5.273441 26.911587 12.962466
6 1 7 0.826624 11.533537 28.340516 20.651491
7 1 7 0.469064 10.104609 3.844512 28.340516
8 1 7 0.802359 3.844512 2.415584 5.273441
9 1 7 0.802359 2.415584 5.273441 3.844512
10 1 7 0.604757 2.415584 25.482659 11.533537
11 1 7 0.826624 12.962466 25.482659 19.222562
12 1 7 0.481316 12.962466 5.273441 26.911587
13 1 7 0.826624 20.651491 11.533537 28.340516
14 1 7 0.604757 25.482659 11.533537 2.415584
15 1 7 0.481316 26.911587 12.962466 5.273441
16 1 7 0.826624 26.911587 17.793634 10.104609
17 1 7 0.815744 20.651491 19.222562 17.793634
18 1 7 0.826624 19.222562 12.962466 25.482659
19 1 7 0.826624 25.482659 19.222562 12.962466
20 1 7 0.815744 19.222562 17.793634 20.651491
21 1 7 0.815744 17.793634 20.651491 19.222562
22 1 7 0.826624 17.793634 10.104609 26.911587
23 1 7 0.469064 28.340516 10.104609 3.844512
24 1 7 0.826624 28.340516 20.651491 11.533537
25 1 7 0.815744 25.482659 26.911587 28.340516
26 1 7 0.469064 11.533537 17.793634 5.273441
27 1 7 0.604757 20.651491 3.844512 12.962466
28 1 7 0.604757 3.844512 12.962466 20.651491
29 1 7 0.826624 25.482659 3.844512 17.793634
30 1 7 0.826624 3.844512 17.793634 25.482659
31 1 7 0.826624 20.651491 26.911587 2.415584
32 1 7 0.802359 11.533537 12.962466 10.104609
33 1 7 0.815744 28.340516 25.482659 26.911587
34 1 7 0.604757 12.962466 20.651491 3.844512
35 1 7 0.469064 17.793634 5.273441 11.533537
36 1 7 0.481316 2.415584 10.104609 19.222562
37 1 7 0.826624 28.340516 5.273441 19.222562
38 1 7 0.826624 2.415584 20.651491 26.911587
39 1 7 0.826624 17.793634 25.482659 3.844512
40 1 7 0.802359 12.962466 10.104609 11.533537
41 1 7 0.815744 26.911587 28.340516 25.482659
42 1 7 0.802359 10.104609 11.533537 12.962466
43 1 7 0.469064 5.273441 11.533537 17.793634
44 1 7 0.826624 26.911587 2.415584 20.651491
45 1 7 0.321203 11.533537 2.415584 5.273441
46 1 7 0.826624 5.273441 19.222562 28.340516
47 1 7 0.284177 3.844512 12.962466 5.273441
48 1 7 0.481316 10.104609 19.222562 2.415584
49 1 7 0.313299 3.844512 2.415584 10.104609
50 1 7 0.285010 12.962466 5.273441 3.844512
51 1 7 0.313299 2.415584 10.104609 3.844512
52 1 7 0.321203 2.415584 5.273441 11.533537
53 1 7 0.313299 10.104609 3.844512 2.415584
54 1 7 0.284177 5.273441 3.844512 12.962466
55 1 7 0.321203 5.273441 11.533537 2.415584
56 1 7 0.481316 19.222562 2.415584 10.104609
57 1 7 0.826624 19.222562 28.340516 5.273441
58 1 7 0.321203 3.844512 12.962466 10.104609
59 1 7 0.285010 11.533537 2.415584 10.104609
60 1 7 0.313299 11.533537 12.962466 5.273441
61 1 7 0.285010 2.415584 10.104609 11.533537
62 1 7 0.313299 12.962466 5.273441 11.533537
63 1 7 0.321203 12.962466 10.104609 3.844512
64 1 7 0.313299 5.273441 11.533537 12.962466
65 1 7 0.285010 10.104609 11.533537 2.415584
66 1 7 0.321203 10.104609 3.844512 12.962466
67 1 6 0.491467 10.675135 4.436260 4.402428
68 1 6 0.330723 3.252765 2.986110 12.091453
69 1 6 0.509769 4.702915 26.319840 19.780478
70 1 6 0.520824 12.125285 27.769990 27.469503
71 1 6 0.188941 10.675135 26.319840 10.975622
72 1 6 0.139753 12.125285 2.986110 18.664647
73 1 6 0.491467 4.702915 4.436260 26.353672
74 1 6 0.491467 3.252765 27.769990 3.286597
75 1 6 0.491467 4.402428 10.675135 4.436260
76 1 6 0.520824 27.769990 27.469503 12.125285
77 1 6 0.481316 10.975622 20.080965 19.814310
78 1 6 0.520824 18.364160 3.286597 27.503335
79 1 6 0.209449 4.402428 20.080965 10.941790
80 1 6 0.500125 18.364160 27.469503 18.630815
81 1 6 0.188941 10.975622 10.675135 26.319840
82 1 6 0.481316 27.769990 3.286597 3.252765
83 1 6 0.491467 4.436260 4.402428 10.675135
84 1 6 0.481316 3.286597 3.252765 27.769990
85 1 6 0.139753 18.664647 12.125285 2.986110
86 1 6 0.520824 27.469503 12.125285 27.769990
87 1 6 0.330723 12.091453 3.252765 2.986110
88 1 6 0.500125 4.436260 26.353672 4.702915
89 1 6 0.188941 26.319840 10.975622 10.675135
90 1 6 0.509769 26.319840 19.780478 4.702915
91 1 6 0.481316 26.053185 19.814310 19.780478
92 1 6 0.500125 18.630815 18.364160 27.469503
93 1 6 0.209449 20.080965 10.941790 4.402428
94 1 6 0.118958 27.503335 12.391940 12.091453
95 1 6 0.509769 26.053185 10.941790 26.353672
96 1 6 0.526400 27.503335 18.364160 3.286597
97 1 6 0.481316 20.080965 19.814310 10.975622
98 1 6 0.481316 18.630815 12.391940 18.664647
99 1 6 0.481316 19.780478 26.053185 19.814310
100 1 6 0.118958 12.391940 12.091453 27.503335
101 1 6 0.491467 26.353672 4.702915 4.436260
102 1 6 0.139753 2.986110 18.664647 12.125285
103 1 6 0.509769 19.780478 4.702915 26.319840
104 1 6 0.330723 2.986110 12.091453 3.252765
105 1 6 0.509769 26.353672 26.053185 10.941790
106 1 6 0.481316 12.391940 18.664647 18.630815
107 1 6 0.481316 19.814310 19.780478 26.053185
108 1 6 0.481316 18.664647 18.630815 12.391940
109 1 6 0.526400 3.286597 27.503335 18.364160
110 1 6 0.118958 12.091453 27.503335 12.391940
111 1 6 0.500125 27.469503 18.630815 18.364160
112 1 6 0.481316 19.814310 10.975622 20.080965
113 1 6 0.509769 10.941790 26.353672 26.053185
114 1 6 0.209449 10.941790 4.402428 20.080965
115 1 6 0.481316 20.080965 26.319840 26.353672
116 1 6 0.335645 12.125285 12.391940 3.286597
117 1 6 0.209449 26.053185 4.436260 10.975622
118 1 6 0.520824 3.252765 18.364160 18.664647
119 1 6 0.509769 20.080965 4.436260 19.780478
120 1 6 0.139753 3.252765 12.391940 27.469503
121 1 6 0.481316 26.053185 26.319840 4.402428
122 1 6 0.481316 12.125285 18.364160 12.091453
123 1 6 0.481316 26.353672 20.080965 26.319840
124 1 6 0.520824 18.364160 18.664647 3.252765
125 1 6 0.491467 19.780478 10.675135 10.941790
126 1 6 0.520824 27.769990 12.091453 18.630815
127 1 6 0.509769 26.353672 10.675135 19.814310
128 1 6 0.500125 27.769990 18.664647 27.503335
129 1 6 0.509769 19.780478 20.080965 4.436260
130 1 6 0.481316 18.364160 12.091453 12.125285
131 1 6 0.481316 26.319840 26.353672 20.080965
132 1 6 0.481316 12.091453 12.125285 18.364160
133 1 6 0.139753 27.469503 3.252765 12.391940
134 1 6 0.520824 18.664647 3.252765 18.364160
135 1 6 0.335645 3.286597 12.125285 12.391940
136 1 6 0.481316 26.319840 4.402428 26.053185
137 1 6 0.509769 4.436260 19.780478 20.080965
138 1 6 0.209449 4.436260 10.975622 26.053185
139 1 6 0.491467 4.702915 10.941790 10.975622
140 1 6 0.129419 12.125285 27.769990 3.286597
141 1 6 0.509769 10.675135 19.814310 26.353672
142 1 6 0.129419 3.252765 18.364160 3.286597
143 1 6 0.188941 4.702915 19.814310 4.402428
144 1 6 0.456899 3.252765 27.769990 12.091453
145 1 6 0.491467 10.675135 10.941790 19.780478
146 1 6 0.491467 10.975622 4.702915 10.941790
147 1 6 0.129419 18.364160 3.286597 3.252765
148 1 6 0.481316 4.402428 26.053185 26.319840
149 1 6 0.454958 27.769990 12.091453 3.252765
150 1 6 0.209449 10.975622 26.053185 4.436260
151 1 6 0.139753 27.769990 3.286597 12.125285
152 1 6 0.188941 4.402428 4.702915 19.814310
153 1 6 0.491467 10.941790 10.975622 4.702915
154 1 6 0.454958 12.091453 3.252765 27.769990
155 1 6 0.129419 3.286597 3.252765 18.364160
156 1 6 0.139753 3.286597 12.125285 27.769990
157 1 6 0.491467 10.941790 19.780478 10.675135
158 1 6 0.188941 19.814310 4.402428 4.702915
159 1 6 0.509769 19.814310 26.353672 10.675135
160 1 6 0.500125 27.503335 27.769990 18.664647
161 1 6 0.118958 18.630815 2.986110 3.286597
162 1 6 0.520824 18.630815 27.769990 12.091453
163 1 6 0.481316 27.503335 2.986110 27.469503
164 1 6 0.118958 2.986110 3.286597 18.630815
165 1 6 0.139753 12.391940 27.469503 3.252765
166 1 6 0.335645 12.391940 3.286597 12.125285
167 1 6 0.481316 2.986110 27.469503 27.503335
168 1 6 0.481316 27.469503 27.503335 2.986110
169 1 6 0.520824 12.091453 18.630815 27.769990
170 1 6 0.118958 3.286597 18.630815 2.986110
171 1 6 0.500125 18.664647 27.503335 27.769990
172 1 6 0.129419 3.252765 18.364160 12.091453
173 1 6 0.129419 12.125285 27.769990 12.091453
174 1 6 0.456899 12.125285 18.364160 3.286597
175 1 6 0.129419 27.769990 12.091453 12.125285
176 1 6 0.456899 18.364160 3.286597 12.125285
177 1 6 0.129419 18.364160 12.091453 3.252765
178 1 6 0.456899 3.286597 12.125285 18.364160
179 1 6 0.129419 12.091453 12.125285 27.769990
180 1 6 0.139753 12.091453 3.252765 18.364160
181 1 3 0.361499 5.797525 1.891500 3.844512
182 1 3 0.330723 5.797525 28.864600 11.533537
183 1 3 0.368406 9.580525 28.864600 19.222562
184 1 3 0.349577 9.580525 1.891500 26.911587
185 1 3 0.361499 3.844512 5.797525 1.891500
186 1 3 0.349577 1.891500 26.911587 9.580525
187 1 3 0.368406 11.533537 24.958575 17.269550
188 1 3 0.349577 13.486550 3.844512 24.958575
189 1 3 0.349577 3.844512 24.958575 13.486550
190 1 3 0.368406 13.486550 26.911587 21.175575
191 1 3 0.330723 11.533537 5.797525 28.864600
192 1 3 0.361499 1.891500 3.844512 5.797525
193 1 3 0.368406 19.222562 9.580525 28.864600
194 1 3 0.349577 26.911587 9.580525 1.891500
195 1 3 0.330723 28.864600 11.533537 5.797525
196 1 3 0.368406 28.864600 19.222562 9.580525
197 1 3 0.361499 21.175575 17.269550 19.222562
198 1 3 0.368406 21.175575 13.486550 26.911587
199 1 3 0.349577 24.958575 13.486550 3.844512
200 1 3 0.368406 24.958575 17.269550 11.533537
201 1 3 0.361499 19.222562 21.175575 17.269550
202 1 3 0.368406 17.269550 11.533537 24.958575
203 1 3 0.368406 26.911587 21.175575 13.486550
204 1 3 0.361499 17.269550 19.222562 21.175575
205 1 3 0.361499 24.958575 28.864600 26.911587
206 1 3 0.330723 9.580525 17.269550 3.844512
207 1 3 0.349577 21.175575 1.891500 11.533537
208 1 3 0.349577 5.797525 13.486550 19.222562
209 1 3 0.368406 24.958575 1.891500 19.222562
210 1 3 0.368406 5.797525 17.269550 26.911587
211 1 3 0.368406 21.175575 28.864600 3.844512
212 1 3 0.361499 9.580525 13.486550 11.533537
213 1 3 0.361499 26.911587 24.958575 28.864600
214 1 3 0.349577 13.486550 19.222562 5.797525
215 1 3 0.349577 19.222562 5.797525 13.486550
216 1 3 0.349577 1.891500 11.533537 21.175575
217 1 3 0.368406 26.911587 5.797525 17.269550
218 1 3 0.368406 1.891500 19.222562 24.958575
219 1 3 0.368406 19.222562 24.958575 1.891500
220 1 3 0.361499 13.486550 11.533537 9.580525
221 1 3 0.361499 28.864600 26.911587 24.958575
222 1 3 0.361499 11.533537 9.580525 13.486550
223 1 3 0.330723 3.844512 9.580525 17.269550
224 1 3 0.368406 28.864600 3.844512 21.175575
225 1 3 0.330723 9.580525 1.891500 3.844512
226 1 3 0.349577 5.797525 13.486550 3.844512
227 1 3 0.330723 5.797525 1.891500 11.533537
228 1 3 0.349577 13.486550 3.844512 5.797525
229 1 3 0.368406 3.844512 21.175575 28.864600
230 1 3 0.330723 1.891500 11.533537 5.797525
231 1 3 0.349577 11.533537 21.175575 1.891500
232 1 3 0.330723 1.891500 3.844512 9.580525
233 1 3 0.330723 11.533537 5.797525 1.891500
234 1 3 0.349577 3.844512 5.797525 13.486550
235 1 3 0.330723 3.844512 9.580525 1.891500
236 1 3 0.330723 17.269550 3.844512 9.580525
237 1 3 0.368406 17.269550 26.911587 5.797525
238 1 3 0.330723 5.797525 13.486550 11.533537
239 1 3 0.349577 9.580525 1.891500 11.533537
240 1 3 0.330723 9.580525 13.486550 3.844512
241 1 3 0.349577 1.891500 11.533537 9.580525
242 1 3 0.330723 13.486550 3.844512 9.580525
243 1 3 0.330723 13.486550 11.533537 5.797525
244 1 3 0.330723 3.844512 9.580525 13.486550
245 1 3 0.349577 11.533537 9.580525 1.891500
246 1 3 0.330723 11.533537 5.797525 13.486550
247 1 3 0.100952 6.360361 6.431101 1.454764
248 1 3 0.100952 1.257924 29.427436 9.143789
249 1 3 0.100952 9.017689 24.324999 16.832814
250 1 3 0.109520 14.120126 1.328664 24.521839
251 1 3 0.100952 6.360361 24.324999 13.923286
252 1 3 0.109520 14.120126 29.427436 21.612311
253 1 3 0.091535 9.017689 6.431101 29.301336
254 1 3 0.091535 1.257924 1.328664 6.234261
255 1 3 0.100952 1.454764 6.360361 6.431101
256 1 3 0.109520 1.328664 24.521839 14.120126
257 1 3 0.100952 13.923286 24.395739 21.809151
258 1 3 0.079392 14.049386 6.234261 29.498176
259 1 3 0.100952 1.454764 24.395739 8.946949
260 1 3 0.100952 14.049386 24.521839 16.635974
261 1 3 0.100952 13.923286 6.360361 24.324999
262 1 3 0.091535 1.328664 6.234261 1.257924
263 1 3 0.100952 6.431101 1.454764 6.360361
264 1 3 0.091535 6.234261 1.257924 1.328664
265 1 3 0.109520 21.612311 14.120126 29.427436
266 1 3 0.109520 24.521839 14.120126 1.328664
267 1 3 0.100952 9.143789 1.257924 29.427436
268 1 3 0.091535 6.431101 29.301336 9.017689
269 1 3 0.100952 24.324999 13.923286 6.360361
270 1 3 0.100952 24.324999 16.832814 9.017689
271 1 3 0.100952 21.738411 21.809151 16.832814
272 1 3 0.100952 16.635974 14.049386 24.521839
273 1 3 0.100952 24.395739 8.946949 1.454764
274 1 3 0.100952 29.498176 16.706714 9.143789
275 1 3 0.100952 21.738411 8.946949 29.301336
276 1 3 0.079392 29.498176 14.049386 6.234261
277 1 3 0.100952 24.395739 21.809151 13.923286
278 1 3 0.100952 16.635974 16.706714 21.612311
279 1 3 0.100952 16.832814 21.738411 21.809151
280 1 3 0.100952 16.706714 9.143789 29.498176
281 1 3 0.091535 29.301336 9.017689 6.431101
282 1 3 0.109520 29.427436 21.612311 14.120126
283 1 3 0.100952 16.832814 9.017689 24.324999
284 1 3 0.100952 29.427436 9.143789 1.257924
285 1 3 0.100952 29.301336 21.738411 8.946949
286 1 3 0.100952 16.706714 21.612311 16.635974
287 1 3 0.100952 21.809151 16.832814 21.738411
288 1 3 0.100952 21.612311 16.635974 16.706714
289 1 3 0.079392 6.234261 29.498176 14.049386
290 1 3 0.100952 9.143789 29.498176 16.706714
291 1 3 0.100952 24.521839 16.635974 14.049386
292 1 3 0.100952 21.809151 13.923286 24.395739
293 1 3 0.100952 8.946949 29.301336 21.738411
294 1 3 0.100952 8.946949 1.454764 24.395739
295 1 3 0.100952 24.395739 24.324999 29.301336
296 1 3 0.100952 14.120126 16.706714 6.234261
297 1 3 0.100952 21.738411 6.431101 13.923286
298 1 3 0.109520 1.257924 14.049386 21.612311
299 1 3 0.100952 24.395739 6.431101 16.832814
300 1 3 0.109520 1.257924 16.706714 24.521839
301 1 3 0.100952 21.738411 24.324999 1.454764
302 1 3 0.091535 14.120126 14.049386 9.143789
303 1 3 0.100952 29.301336 24.395739 24.324999
304 1 3 0.109520 14.049386 21.612311 1.257924
305 1 3 0.091535 16.832814 6.360361 8.946949
306 1 3 0.079392 1.328664 9.143789 16.635974
307 1 3 0.100952 29.301336 6.360361 21.809151
308 1 3 0.100952 1.328664 21.612311 29.498176
309 1 3 0.100952 16.832814 24.395739 6.431101
310 1 3 0.091535 14.049386 9.143789 14.120126
311 1 3 0.100952 24.324999 29.301336 24.395739
312 1 3 0.091535 9.143789 14.120126 14.049386
313 1 3 0.109520 24.521839 1.257924 16.706714
314 1 3 0.109520 21.612311 1.257924 14.049386
315 1 3 0.100952 6.234261 14.120126 16.706714
316 1 3 0.100952 24.324999 1.454764 21.738411
317 1 3 0.100952 6.431101 16.832814 24.395739
318 1 3 0.100952 6.431101 13.923286 21.738411
319 1 3 0.100952 9.017689 8.946949 13.923286
320 1 3 0.091535 14.120126 1.328664 6.234261
321 1 3 0.100952 6.360361 21.809151 29.301336
322 1 3 0.079392 1.257924 14.049386 6.234261
323 1 3 0.100952 9.017689 21.809151 1.454764
324 1 3 0.091535 1.257924 1.328664 9.143789
325 1 3 0.091535 6.360361 8.946949 16.832814
326 1 3 0.100952 13.923286 9.017689 8.946949
327 1 3 0.079392 14.049386 6.234261 1.257924
328 1 3 0.100952 1.454764 21.738411 24.324999
329 1 3 0.091535 1.328664 9.143789 1.257924
330 1 3 0.100952 13.923286 21.738411 6.431101
331 1 3 0.091535 1.328664 6.234261 14.120126
332 1 3 0.100952 1.454764 9.017689 21.809151
333 1 3 0.100952 8.946949 13.923286 9.017689
334 1 3 0.091535 9.143789 1.257924 1.328664
335 1 3 0.079392 6.234261 1.257924 14.049386
336 1 3 0.091535 6.234261 14.120126 1.328664
337 1 3 0.091535 8.946949 16.832814 6.360361
338 1 3 0.100952 21.809151 1.454764 9.017689
339 1 3 0.100952 21.809151 29.301336 6.360361
340 1 3 0.100952 29.498176 1.328664 21.612311
341 1 3 0.100952 16.635974 29.427436 6.234261
342 1 3 0.079392 16.635974 1.328664 9.143789
343 1 3 0.100952 29.498176 29.427436 24.521839
344 1 3 0.100952 29.427436 6.234261 16.635974
345 1 3 0.109520 16.706714 24.521839 1.257924
346 1 3 0.100952 16.706714 6.234261 14.120126
347 1 3 0.100952 29.427436 24.521839 29.498176
348 1 3 0.100952 24.521839 29.498176 29.427436
349 1 3 0.079392 9.143789 16.635974 1.328664
350 1 3 0.100952 6.234261 16.635974 29.427436
351 1 3 0.100952 21.612311 29.498176 1.328664
352 1 3 0.091535 1.257924 14.049386 9.143789
353 1 3 0.079392 14.120126 1.328664 9.143789
354 1 3 0.091535 14.120126 14.049386 6.234261
355 1 3 0.079392 1.328664 9.143789 14.120126
356 1 3 0.091535 14.049386 6.234261 14.120126
357 1 3 0.091535 14.049386 9.143789 1.257924
358 1 3 0.091535 6.234261 14.120126 14.049386
359 1 3 0.079392 9.143789 14.120126 1.328664
360 1 3 0.091535 9.143789 1.257924 14.049386
361 1 3 0.129419 8.242635 7.716705 1.660829
362 1 3 0.100952 30.728420 0.553610 9.349854
363 1 3 0.139753 7.135415 23.039395 17.038879
364 1 3 0.150640 15.405730 30.202490 24.727904
365 1 3 0.139753 8.242635 23.039395 13.717221
366 1 3 0.129419 15.405730 0.553610 21.406246
367 1 3 0.129419 7.135415 7.716705 29.095271
368 1 3 0.139753 30.728420 30.202490 6.028196
369 1 3 0.129419 1.660829 8.242635 7.716705
370 1 3 0.150640 30.202490 24.727904 15.405730
371 1 3 0.139753 13.717221 22.513465 23.094755
372 1 3 0.176557 15.931660 6.028196 0.027680
373 1 3 0.139753 1.660829 22.513465 7.661345
374 1 3 0.139753 15.931660 24.727904 15.350370
375 1 3 0.139753 13.717221 8.242635 23.039395
376 1 3 0.139753 30.202490 6.028196 30.728420
377 1 3 0.129419 7.716705 1.660829 8.242635
378 1 3 0.139753 6.028196 30.728420 30.202490
379 1 3 0.129419 21.406246 15.405730 0.553610
380 1 3 0.150640 24.727904 15.405730 30.202490
381 1 3 0.100952 9.349854 30.728420 0.553610
382 1 3 0.129419 7.716705 29.095271 7.135415
383 1 3 0.139753 23.039395 13.717221 8.242635
384 1 3 0.139753 23.039395 17.038879 7.135415
385 1 3 0.139753 23.620685 23.094755 17.038879
386 1 3 0.139753 15.350370 15.931660 24.727904
387 1 3 0.139753 22.513465 7.661345 1.660829
388 1 3 0.053378 0.027680 14.824440 9.349854
389 1 3 0.139753 23.620685 7.661345 29.095271
390 1 3 0.176557 0.027680 15.931660 6.028196
391 1 3 0.139753 22.513465 23.094755 13.717221
392 1 3 0.139753 15.350370 14.824440 21.406246
393 1 3 0.139753 17.038879 23.620685 23.094755
394 1 3 0.053378 14.824440 9.349854 0.027680
395 1 3 0.129419 29.095271 7.135415 7.716705
396 1 3 0.129419 0.553610 21.406246 15.405730
397 1 3 0.139753 17.038879 7.135415 23.039395
398 1 3 0.100952 0.553610 9.349854 30.728420
399 1 3 0.139753 29.095271 23.620685 7.661345
400 1 3 0.139753 14.824440 21.406246 15.350370
401 1 3 0.139753 23.094755 17.038879 23.620685
402 1 3 0.139753 21.406246 15.350370 14.824440
403 1 3 0.176557 6.028196 0.027680 15.931660
404 1 3 0.053378 9.349854 0.027680 14.824440
405 1 3 0.139753 24.727904 15.350370 15.931660
406 1 3 0.139753 23.094755 13.717221 22.513465
407 1 3 0.139753 7.661345 29.095271 23.620685
408 1 3 0.139753 7.661345 1.660829 22.513465
409 1 3 0.139753 22.513465 23.039395 29.095271
410 1 3 0.100952 15.405730 14.824440 6.028196
411 1 3 0.139753 23.620685 7.716705 13.717221
412 1 3 0.150640 30.728420 15.931660 21.406246
413 1 3 0.139753 22.513465 7.716705 17.038879
414 1 3 0.129419 30.728420 14.824440 24.727904
415 1 3 0.139753 23.620685 23.039395 1.660829
416 1 3 0.139753 15.405730 15.931660 9.349854
417 1 3 0.139753 29.095271 22.513465 23.039395
418 1 3 0.150640 15.931660 21.406246 30.728420
419 1 3 0.129419 17.038879 8.242635 7.661345
420 1 3 0.176557 30.202490 9.349854 15.350370
421 1 3 0.139753 29.095271 8.242635 23.094755
422 1 3 0.139753 30.202490 21.406246 0.027680
423 1 3 0.139753 17.038879 22.513465 7.716705
424 1 3 0.139753 15.931660 9.349854 15.405730
425 1 3 0.139753 23.039395 29.095271 22.513465
426 1 3 0.139753 9.349854 15.405730 15.931660
427 1 3 0.129419 24.727904 30.728420 14.824440
428 1 3 0.150640 21.406246 30.728420 15.931660
429 1 3 0.100952 6.028196 15.405730 14.824440
430 1 3 0.139753 23.039395 1.660829 23.620685
431 1 3 0.139753 7.716705 17.038879 22.513465
432 1 3 0.139753 7.716705 13.717221 23.620685
433 1 3 0.129419 7.135415 7.661345 13.717221
434 1 3 0.061789 15.405730 30.202490 6.028196
435 1 3 0.139753 8.242635 23.094755 29.095271
436 1 3 0.176557 30.728420 15.931660 6.028196
437 1 3 0.139753 7.135415 23.094755 1.660829
438 1 3 0.100952 30.728420 30.202490 9.349854
439 1 3 0.129419 8.242635 7.661345 17.038879
440 1 3 0.129419 13.717221 7.135415 7.661345
441 1 3 0.176557 15.931660 6.028196 30.728420
442 1 3 0.139753 1.660829 23.620685 23.039395
443 1 3 0.100952 30.202490 9.349854 30.728420
444 1 3 0.139753 13.717221 23.620685 7.716705
445 1 3 0.061789 30.202490 6.028196 15.405730
446 1 3 0.139753 1.660829 7.135415 23.094755
447 1 3 0.129419 7.661345 13.717221 7.135415
448 1 3 0.100952 9.349854 30.728420 30.202490
449 1 3 0.176557 6.028196 30.728420 15.931660
450 1 3 0.061789 6.028196 15.405730 30.202490
451 1 3 0.129419 7.661345 17.038879 8.242635
452 1 3 0.139753 23.094755 1.660829 7.135415
453 1 3 0.139753 23.094755 29.095271 8.242635
454 1 3 0.139753 0.027680 30.202490 21.406246
455 1 3 0.053378 15.350370 0.553610 6.028196
456 1 3 0.176557 15.350370 30.202490 9.349854
457 1 3 0.139753 0.027680 0.553610 24.727904
458 1 3 0.053378 0.553610 6.028196 15.350370
459 1 3 0.129419 14.824440 24.727904 30.728420
460 1 3 0.100952 14.824440 6.028196 15.405730
461 1 3 0.139753 0.553610 24.727904 0.027680
462 1 3 0.139753 24.727904 0.027680 0.553610
463 1 3 0.176557 9.349854 15.350370 30.202490
464 1 3 0.053378 6.028196 15.350370 0.553610
465 1 3 0.139753 21.406246 0.027680 30.202490
466 1 3 0.061789 30.728420 15.931660 9.349854
467 1 3 0.176557 15.405730 30.202490 9.349854
468 1 3 0.100952 15.405730 15.931660 6.028196
469 1 3 0.176557 30.202490 9.349854 15.405730
470 1 3 0.100952 15.931660 6.028196 15.405730
471 1 3 0.061789 15.931660 9.349854 30.728420
472 1 3 0.100952 6.028196 15.405730 15.931660
473 1 3 0.176557 9.349854 15.405730 30.202490
474 1 3 0.061789 9.349854 30.728420 15.931660
475 1 3 0.118958 10.072623 6.947803 2.900300
476 1 3 0.109520 0.741222 2.383598 10.589325
477 1 3 0.129419 5.305427 23.808297 18.278350
478 1 3 0.129419 14.636828 28.372502 25.967375
479 1 3 0.129419 10.072623 23.808297 12.477750
480 1 3 0.091535 14.636828 2.383598 20.166775
481 1 3 0.129419 5.305427 6.947803 27.855800
482 1 3 0.129419 0.741222 28.372502 4.788725
483 1 3 0.118958 2.900300 10.072623 6.947803
484 1 3 0.129419 28.372502 25.967375 14.636828
485 1 3 0.129419 12.477750 20.683477 22.325853
486 1 3 0.100952 17.761648 4.788725 30.014878
487 1 3 0.129419 2.900300 20.683477 8.430247
488 1 3 0.129419 17.761648 25.967375 16.119272
489 1 3 0.129419 12.477750 10.072623 23.808297
490 1 3 0.129419 28.372502 4.788725 0.741222
491 1 3 0.118958 6.947803 2.900300 10.072623
492 1 3 0.129419 4.788725 0.741222 28.372502
493 1 3 0.091535 20.166775 14.636828 2.383598
494 1 3 0.129419 25.967375 14.636828 28.372502
495 1 3 0.109520 10.589325 0.741222 2.383598
496 1 3 0.129419 6.947803 27.855800 5.305427
497 1 3 0.129419 23.808297 12.477750 10.072623
498 1 3 0.129419 23.808297 18.278350 5.305427
499 1 3 0.129419 25.450673 22.325853 18.278350
500 1 3 0.129419 16.119272 17.761648 25.967375
501 1 3 0.129419 20.683477 8.430247 2.900300
502 1 3 0.091535 30.014878 12.994452 10.589325
503 1 3 0.129419 25.450673 8.430247 27.855800
504 1 3 0.100952 30.014878 17.761648 4.788725
505 1 3 0.129419 20.683477 22.325853 12.477750
506 1 3 0.129419 16.119272 12.994452 20.166775
507 1 3 0.129419 18.278350 25.450673 22.325853
508 1 3 0.091535 12.994452 10.589325 30.014878
509 1 3 0.129419 27.855800 5.305427 6.947803
510 1 3 0.091535 2.383598 20.166775 14.636828
511 1 3 0.129419 18.278350 5.305427 23.808297
512 1 3 0.109520 2.383598 10.589325 0.741222
513 1 3 0.129419 27.855800 25.450673 8.430247
514 1 3 0.129419 12.994452 20.166775 16.119272
515 1 3 0.129419 22.325853 18.278350 25.450673
516 1 3 0.129419 20.166775 16.119272 12.994452
517 1 3 0.100952 4.788725 30.014878 17.761648
518 1 3 0.091535 10.589325 30.014878 12.994452
519 1 3 0.129419 25.967375 16.119272 17.761648
520 1 3 0.129419 22.325853 12.477750 20.683477
521 1 3 0.129419 8.430247 27.855800 25.450673
522 1 3 0.129419 8.430247 2.900300 20.683477
523 1 3 0.129419 20.683477 23.808297 27.855800
524 1 3 0.109520 14.636828 12.994452 4.788725
525 1 3 0.129419 25.450673 6.947803 12.477750
526 1 3 0.129419 0.741222 17.761648 20.166775
527 1 3 0.129419 20.683477 6.947803 18.278350
528 1 3 0.091535 0.741222 12.994452 25.967375
529 1 3 0.129419 25.450673 23.808297 2.900300
530 1 3 0.129419 14.636828 17.761648 10.589325
531 1 3 0.129419 27.855800 20.683477 23.808297
532 1 3 0.129419 17.761648 20.166775 0.741222
533 1 3 0.129419 18.278350 10.072623 8.430247
534 1 3 0.100952 28.372502 10.589325 16.119272
535 1 3 0.129419 27.855800 10.072623 22.325853
536 1 3 0.129419 28.372502 20.166775 30.014878
537 1 3 0.129419 18.278350 20.683477 6.947803
538 1 3 0.129419 17.761648 10.589325 14.636828
539 1 3 0.129419 23.808297 27.855800 20.683477
540 1 3 0.129419 10.589325 14.636828 17.761648
541 1 3 0.091535 25.967375 0.741222 12.994452
542 1 3 0.129419 20.166775 0.741222 17.761648
543 1 3 0.109520 4.788725 14.636828 12.994452
544 1 3 0.129419 23.808297 2.900300 25.450673
545 1 3 0.129419 6.947803 18.278350 20.683477
546 1 3 0.129419 6.947803 12.477750 25.450673
547 1 3 0.118958 5.305427 8.430247 12.477750
548 1 3 0.100952 14.636828 28.372502 4.788725
549 1 3 0.129419 10.072623 22.325853 27.855800
550 1 3 0.070112 0.741222 17.761648 4.788725
551 1 3 0.129419 5.305427 22.325853 2.900300
552 1 3 0.109520 0.741222 28.372502 10.589325
553 1 3 0.129419 10.072623 8.430247 18.278350
554 1 3 0.118958 12.477750 5.305427 8.430247
555 1 3 0.070112 17.761648 4.788725 0.741222
556 1 3 0.129419 2.900300 25.450673 23.808297
557 1 3 0.109520 28.372502 10.589325 0.741222
558 1 3 0.129419 12.477750 25.450673 6.947803
559 1 3 0.100952 28.372502 4.788725 14.636828
560 1 3 0.129419 2.900300 5.305427 22.325853
561 1 3 0.118958 8.430247 12.477750 5.305427
562 1 3 0.109520 10.589325 0.741222 28.372502
563 1 3 0.070112 4.788725 0.741222 17.761648
564 1 3 0.100952 4.788725 14.636828 28.372502
565 1 3 0.129419 8.430247 18.278350 10.072623
566 1 3 0.129419 22.325853 2.900300 5.305427
567 1 3 0.129419 22.325853 27.855800 10.072623
568 1 3 0.129419 30.014878 28.372502 20.166775
569 1 3 0.091535 16.119272 2.383598 4.788725
570 1 3 0.100952 16.119272 28.372502 10.589325
571 1 3 0.129419 30.014878 2.383598 25.967375
572 1 3 0.091535 2.383598 4.788725 16.119272
573 1 3 0.091535 12.994452 25.967375 0.741222
574 1 3 0.109520 12.994452 4.788725 14.636828
575 1 3 0.129419 2.383598 25.967375 30.014878
576 1 3 0.129419 25.967375 30.014878 2.383598
577 1 3 0.100952 10.589325 16.119272 28.372502
578 1 3 0.091535 4.788725 16.119272 2.383598
579 1 3 0.129419 20.166775 30.014878 28.372502
580 1 3 0.100952 0.741222 17.761648 10.589325
581 1 3 0.070112 14.636828 28.372502 10.589325
582 1 3 0.109520 14.636828 17.761648 4.788725
583 1 3 0.070112 28.372502 10.589325 14.636828
584 1 3 0.109520 17.761648 4.788725 14.636828
585 1 3 0.100952 17.761648 10.589325 0.741222
586 1 3 0.109520 4.788725 14.636828 17.761648
587 1 3 0.070112 10.589325 14.636828 28.372502
588 1 3 0.100952 10.589325 0.741222 17.761648
589 1 3 0.091535 7.987359 3.592312 3.635371
590 1 3 0.070112 4.096713 0.298334 11.324396
591 1 3 0.109520 7.390691 27.163788 19.013421
592 1 3 0.109520 11.281337 30.457766 26.702446
593 1 3 0.100952 7.987359 27.163788 11.742679
594 1 3 0.079392 11.281337 0.298334 19.431704
595 1 3 0.109520 7.390691 3.592312 27.120729
596 1 3 0.091535 4.096713 30.457766 4.053654
597 1 3 0.091535 3.635371 7.987359 3.592312
598 1 3 0.109520 30.457766 26.702446 11.281337
599 1 3 0.100952 11.742679 22.768741 18.970362
600 1 3 0.118958 15.676384 4.053654 26.659387
601 1 3 0.109520 3.635371 22.768741 11.785738
602 1 3 0.100952 15.676384 26.702446 19.474763
603 1 3 0.100952 11.742679 7.987359 27.163788
604 1 3 0.091535 30.457766 4.053654 4.096713
605 1 3 0.091535 3.592312 3.635371 7.987359
606 1 3 0.091535 4.053654 4.096713 30.457766
607 1 3 0.079392 19.431704 11.281337 0.298334
608 1 3 0.109520 26.702446 11.281337 30.457766
609 1 3 0.070112 11.324396 4.096713 0.298334
610 1 3 0.109520 3.592312 27.120729 7.390691
611 1 3 0.100952 27.163788 11.742679 7.987359
612 1 3 0.109520 27.163788 19.013421 7.390691
613 1 3 0.100952 23.365409 18.970362 19.013421
614 1 3 0.100952 19.474763 15.676384 26.702446
615 1 3 0.109520 22.768741 11.785738 3.635371
616 1 3 0.109520 26.659387 15.079716 11.324396
617 1 3 0.100952 23.365409 11.785738 27.120729
618 1 3 0.118958 26.659387 15.676384 4.053654
619 1 3 0.100952 22.768741 18.970362 11.742679
620 1 3 0.100952 19.474763 15.079716 19.431704
621 1 3 0.100952 19.013421 23.365409 18.970362
622 1 3 0.109520 15.079716 11.324396 26.659387
623 1 3 0.109520 27.120729 7.390691 3.592312
624 1 3 0.079392 0.298334 19.431704 11.281337
625 1 3 0.109520 19.013421 7.390691 27.163788
626 1 3 0.070112 0.298334 11.324396 4.096713
627 1 3 0.100952 27.120729 23.365409 11.785738
628 1 3 0.100952 15.079716 19.431704 19.474763
629 1 3 0.100952 18.970362 19.013421 23.365409
630 1 3 0.100952 19.431704 19.474763 15.079716
631 1 3 0.118958 4.053654 26.659387 15.676384
632 1 3 0.109520 11.324396 26.659387 15.079716
633 1 3 0.100952 26.702446 19.474763 15.676384
634 1 3 0.100952 18.970362 11.742679 22.768741
635 1 3 0.100952 11.785738 27.120729 23.365409
636 1 3 0.109520 11.785738 3.635371 22.768741
637 1 3 0.100952 22.768741 27.163788 27.120729
638 1 3 0.070112 11.281337 15.079716 4.053654