LAMMPS (7 Feb 2024 - Update 1)
  using 1 OpenMP thread(s) per MPI task
# GCMC: 75.0% H₂ / 25.0% CH₄ at 35 bar, 298 K
units real
atom_style full
boundary p p p

read_data "structure.data"
Reading data file ...
  orthogonal box = (0 0 0) to (30.334 30.334 34.473)
  2 by 2 by 2 MPI processor grid
  reading atoms ...
  1356 atoms
Finding 1-2 1-3 1-4 neighbors ...
  special bond factors lj:    0        0        0       
  special bond factors coul:  0        0        0       
     0 = max # of 1-2 neighbors
     0 = max # of 1-3 neighbors
     0 = max # of 1-4 neighbors
     1 = max # of special neighbors
  special bonds CPU = 0.000 seconds
  read_data CPU = 0.006 seconds

timestep 1.0

pair_style lj/cut/coul/long 12.0
kspace_style pppm 1e-5
pair_coeff 1 1 0.104924 3.431000  # C
pair_coeff 2 2 0.043997 2.571000  # H
pair_coeff 3 3 0.068956 3.261000  # N
pair_coeff 4 4 0.060014 3.118000  # O
pair_coeff 5 5 0.123962 2.462000  # Zn

# Gas parameters
pair_coeff 6 6 0.072930 2.958000
pair_coeff 7 7 0.294106 3.730000

pair_modify mix geometric tail yes

# Groups
group framework type 1:5
1356 atoms in group framework
group h2 type 6
0 atoms in group h2
group ch4 type 7
0 atoms in group ch4
group gases type 6 7
0 atoms in group gases

# Freeze framework
fix freeze framework setforce 0.0 0.0 0.0

# Counting
compute type_counts all count/type atom
variable n_h2 equal c_type_counts[6]
variable n_ch4 equal c_type_counts[7]

# Temperature monitoring
compute temp_gases gases temp
compute_modify temp_gases dynamic yes

# Chemical potentials
variable mu_h2 equal 1.939543
variable mu_ch4 equal 1.273053

# Initialize framework at target temperature
velocity framework create 298 98765 dist gaussian
velocity framework scale 298

# GCMC
fix gcmc_h2 gases gcmc 1000 5 0 6 54321 298 ${mu_h2} 0.2
fix gcmc_h2 gases gcmc 1000 5 0 6 54321 298 1.939543 0.2
fix gcmc_ch4 gases gcmc 1000 5 0 7 12345 298 ${mu_ch4} 0.2
fix gcmc_ch4 gases gcmc 1000 5 0 7 12345 298 1.273053 0.2

print "[INFO] Equilibration Phase"
[INFO] Equilibration Phase
thermo_style custom step temp pe ke v_n_h2 v_n_ch4 vol
thermo 5000
run 100000
WARNING: No fixes with time integration, atoms won't move (src/verlet.cpp:60)
PPPM initialization ...
WARNING: System is not charge neutral, net charge = -4.3e-05 (src/kspace.cpp:327)
  using 12-bit tables for long-range coulomb (src/kspace.cpp:342)
  G vector (1/distance) = 0.22779353
  grid = 15 15 16
  stencil order = 5
  estimated absolute RMS force accuracy = 0.0024931754
  estimated relative force accuracy = 7.5081236e-06
  using double precision FFTW3
  3d grid and FFT values/proc = 2197 512
Generated 21 of 21 mixed pair_coeff terms from geometric mixing rule
WARNING: Fix gcmc using full_energy option (src/MC/fix_gcmc.cpp:539)
0 atoms in group FixGCMC:gcmc_exclusion_group:gcmc_h2
WARNING: Fix gcmc using full_energy option (src/MC/fix_gcmc.cpp:539)
0 atoms in group FixGCMC:gcmc_exclusion_group:gcmc_ch4
WARNING: Neighbor exclusions used with KSpace solver may give inconsistent Coulombic energies (src/neighbor.cpp:651)
Neighbor list info ...
  update: every = 1 steps, delay = 0 steps, check = yes
  max neighbors/atom: 2000, page size: 100000
  master list distance cutoff = 14
  ghost atom cutoff = 14
  binsize = 7, bins = 5 5 5
  1 neighbor lists, perpetual/occasional/extra = 1 0 0
  (1) pair lj/cut/coul/long, perpetual
      attributes: half, newton on
      pair build: half/bin/newton
      stencil: half/bin/3d
      bin: standard
Per MPI rank memory allocation (min/avg/max) = 6.76 | 6.762 | 6.766 Mbytes
   Step          Temp          PotEng         KinEng         v_n_h2        v_n_ch4         Volume    
         0   298            1.3947506e+08  1203.6213      0              0              31720.385    
      5000   300.23138      1.3947506e+08  1212.6338      7              2              31720.385    
     10000   301.33391      1.3947506e+08  1217.087       10             4              31720.385    
     15000   302.2759       1.3947507e+08  1220.8916      15             9              31720.385    
     20000   304.99269      1.3947506e+08  1231.8648      23             14             31720.385    
     25000   306.05447      1.3947506e+08  1236.1533      24             17             31720.385    
     30000   307.16297      1.3947505e+08  1240.6305      27             20             31720.385    
     35000   308.12919      1.3947505e+08  1244.5331      28             22             31720.385    
     40000   310.10593      1.3947504e+08  1252.5171      33             27             31720.385    
     45000   311.40383      1.3947505e+08  1257.7593      38             28             31720.385    
     50000   312.64012      1.3947505e+08  1262.7527      42             30             31720.385    
     55000   313.51808      1.3947503e+08  1266.2988      44             32             31720.385    
     60000   314.11288      1.3947503e+08  1268.7012      45             33             31720.385    
     65000   315.39437      1.3947503e+08  1273.8771      49             34             31720.385    
     70000   316.89581      1.3947503e+08  1279.9414      54             34             31720.385    
     75000   317.37215      1.3947502e+08  1281.8653      57             35             31720.385    
     80000   317.19399      1.3947502e+08  1281.1458      57             35             31720.385    
     85000   319.27741      1.3947502e+08  1289.5607      63             38             31720.385    
     90000   320.45304      1.3947501e+08  1294.3091      68             40             31720.385    
     95000   321.81159      1.39475e+08    1299.7962      72             43             31720.385    
    100000   323.87688      1.39475e+08    1308.1379      80             43             31720.385    
Loop time of 88.8285 on 8 procs for 100000 steps with 1479 atoms

Performance: 97.266 ns/day, 0.247 hours/ns, 1125.764 timesteps/s, 1.665 Matom-step/s
92.8% CPU use with 8 MPI tasks x 1 OpenMP threads

MPI task timing breakdown:
Section |  min time  |  avg time  |  max time  |%varavg| %total
---------------------------------------------------------------
Pair    | 48.258     | 49.902     | 51.703     |  15.1 | 56.18
Bond    | 0.0041314  | 0.0048541  | 0.0054379  |   0.6 |  0.01
Kspace  | 20.326     | 22.374     | 24.109     |  24.1 | 25.19
Neigh   | 0.17522    | 0.18231    | 0.1899     |   1.1 |  0.21
Comm    | 10.312     | 10.899     | 11.324     |   9.4 | 12.27
Output  | 0.00055409 | 0.00061159 | 0.00076041 |   0.0 |  0.00
Modify  | 4.0925     | 4.0949     | 4.0968     |   0.1 |  4.61
Other   |            | 1.371      |            |       |  1.54

Nlocal:        184.875 ave         192 max         180 min
Histogram: 1 0 3 0 1 2 0 0 0 1
Nghost:        3844.25 ave        3876 max        3816 min
Histogram: 1 0 1 1 1 2 1 0 0 1
Neighs:          49440 ave       52178 max       48206 min
Histogram: 3 1 0 1 1 1 0 0 0 1

Total # of neighbors = 395520
Ave neighs/atom = 267.42394
Ave special neighs/atom = 0
Neighbor list builds = 1297
Dangerous builds = 0

print "[INFO] Production Phase"
[INFO] Production Phase
run 100000
WARNING: No fixes with time integration, atoms won't move (src/verlet.cpp:60)
PPPM initialization ...
  using 12-bit tables for long-range coulomb (src/kspace.cpp:342)
  G vector (1/distance) = 0.22784334
  grid = 15 15 16
  stencil order = 5
  estimated absolute RMS force accuracy = 0.0023852152
  estimated relative force accuracy = 7.1830047e-06
  using double precision FFTW3
  3d grid and FFT values/proc = 2197 512
Generated 21 of 21 mixed pair_coeff terms from geometric mixing rule
WARNING: Neighbor exclusions used with KSpace solver may give inconsistent Coulombic energies (src/neighbor.cpp:651)
Per MPI rank memory allocation (min/avg/max) = 6.889 | 6.891 | 6.895 Mbytes
   Step          Temp          PotEng         KinEng         v_n_h2        v_n_ch4         Volume    
    100000   296.92366      1.39475e+08    1308.1379      80             43             31720.385    
    105000   298.14907      1.3947501e+08  1313.5366      83             47             31720.385    
    110000   299.56132      1.3947502e+08  1319.7585      88             50             31720.385    
    115000   299.35298      1.3947501e+08  1318.8406      87             50             31720.385    
    120000   299.67529      1.3947501e+08  1320.2606      89             50             31720.385    
    125000   301.01677      1.3947501e+08  1326.1707      93             54             31720.385    
    130000   301.34327      1.3947501e+08  1327.6091      94             54             31720.385    
    135000   302.64736      1.3947499e+08  1333.3545      97             56             31720.385    
    140000   304.13984      1.3947501e+08  1339.9298      99             59             31720.385    
    145000   305.15542      1.39475e+08    1344.4041      103            59             31720.385    
    150000   305.29885      1.3947498e+08  1345.036       104            60             31720.385    
    155000   305.84658      1.3947498e+08  1347.4491      105            61             31720.385    
    160000   306.35658      1.3947498e+08  1349.696       109            61             31720.385    
    165000   306.78834      1.3947499e+08  1351.5981      110            63             31720.385    
    170000   307.24046      1.3947499e+08  1353.59        112            66             31720.385    
    175000   307.43489      1.3947499e+08  1354.4466      112            67             31720.385    
    180000   306.99619      1.3947498e+08  1352.5138      112            66             31720.385    
    185000   307.10422      1.3947498e+08  1352.9898      112            67             31720.385    
    190000   307.99887      1.3947499e+08  1356.9313      116            70             31720.385    
    195000   308.31504      1.3947499e+08  1358.3242      117            70             31720.385    
    200000   308.61787      1.3947498e+08  1359.6584      118            70             31720.385    
Loop time of 99.1931 on 8 procs for 100000 steps with 1544 atoms

Performance: 87.103 ns/day, 0.276 hours/ns, 1008.135 timesteps/s, 1.557 Matom-step/s
92.6% CPU use with 8 MPI tasks x 1 OpenMP threads

MPI task timing breakdown:
Section |  min time  |  avg time  |  max time  |%varavg| %total
---------------------------------------------------------------
Pair    | 56.47      | 57.979     | 60.888     |  17.1 | 58.45
Bond    | 0.004363   | 0.0050127  | 0.0058698  |   0.7 |  0.01
Kspace  | 19.894     | 23.343     | 24.821     |  30.4 | 23.53
Neigh   | 0.19823    | 0.20642    | 0.21695    |   1.4 |  0.21
Comm    | 11.244     | 11.566     | 12.114     |   8.5 | 11.66
Output  | 0.00059565 | 0.00062971 | 0.0007956  |   0.0 |  0.00
Modify  | 4.5658     | 4.5696     | 4.5724     |   0.1 |  4.61
Other   |            | 1.524      |            |       |  1.54

Nlocal:            193 ave         201 max         185 min
Histogram: 1 0 1 1 0 2 2 0 0 1
Nghost:        4012.25 ave        4029 max        3998 min
Histogram: 1 0 2 0 1 3 0 0 0 1
Neighs:        53889.9 ave       57284 max       51609 min
Histogram: 1 1 1 2 1 0 1 0 0 1

Total # of neighbors = 431119
Ave neighs/atom = 279.22215
Ave special neighs/atom = 0
Neighbor list builds = 1300
Dangerous builds = 0

print "[INFO] Final H2: ${n_h2}"
[INFO] Final H2: 118
print "[INFO] Final CH4: ${n_ch4}"
[INFO] Final CH4: 70
print "[INFO] Completed"
[INFO] Completed
Total wall time: 0:03:08
