# LAMMPS data file for MOF_2653
# Cell parameters: a=12.800 b=12.800 c=9.984
# Cell angles: alpha=90.0° beta=90.0° gamma=90.0°
# <<Zeo++>>
# Framework_density: 1.232876 g/cm3
# Accessible_surface_area: 1290.620000 m2/g
# Void_fraction: 0.085360
# Accessible_volume: 0.069234 cm3/g
# Largest_included_sphere_diameter: 5.071120 A
# Largest_free_sphere_diameter: 4.840550 A
# Pore_limiting_diameter: 5.071120 A
# <<Zeo++>>
128 atoms
0 bonds
0 angles
0 dihedrals
0 impropers

7 atom types

0.0 12.800000 xlo xhi
0.0 12.800000 ylo yhi
0.0 9.984000 zlo zhi

Masses

1 12.011  # C
2 1.008  # H
3 14.007  # N
4 15.999  # O
5 65.380  # Zn
6 2.016  # H2 (GCMC insert - neutral charge)
7 16.043  # CH4 (GCMC insert - neutral charge)

Atoms  

1 1 5 0.749747 6.620544 11.644416 0.415434
2 1 5 0.749747 6.179456 1.155584 5.407434
3 1 5 0.749747 11.644416 6.179456 2.911434
4 1 5 0.749747 1.155584 6.620544 7.903434
5 1 2 0.130918 8.538880 9.384960 1.193088
6 1 2 0.130918 4.261120 3.415040 6.185088
7 1 2 0.130918 9.384960 4.261120 3.689088
8 1 2 0.130918 3.415040 8.538880 8.681088
9 1 2 0.152579 10.403840 8.316160 0.449280
10 1 2 0.152579 2.396160 4.483840 5.441280
11 1 2 0.152579 8.316160 2.396160 2.945280
12 1 2 0.152579 4.483840 10.403840 7.937280
13 1 2 0.152579 10.245120 10.549760 7.112602
14 1 2 0.152579 2.554880 2.250240 2.120602
15 1 2 0.152579 10.549760 2.554880 9.608602
16 1 2 0.152579 2.250240 10.245120 4.616602
17 1 2 0.120307 8.446720 11.613440 8.000179
18 1 2 0.120307 4.353280 1.186560 3.008179
19 1 2 0.120307 11.613440 4.353280 0.512179
20 1 2 0.120307 1.186560 8.446720 5.504179
21 1 2 0.120307 12.038400 9.075200 7.318272
22 1 2 0.120307 0.761600 3.724800 2.326272
23 1 2 0.120307 9.075200 0.761600 9.814272
24 1 2 0.120307 3.724800 12.038400 4.822272
25 1 2 0.137961 12.547840 9.047040 8.794906
26 1 2 0.137961 0.252160 3.752960 3.802906
27 1 2 0.137961 9.047040 0.252160 1.306906
28 1 2 0.137961 3.752960 12.547840 6.298906
29 1 2 0.097975 10.391040 7.240960 6.825062
30 1 2 0.097975 2.408960 5.559040 1.833062
31 1 2 0.097975 7.240960 2.408960 9.321062
32 1 2 0.097975 5.559040 10.391040 4.329062
33 1 2 0.137961 9.665280 5.658880 8.342630
34 1 2 0.137961 3.134720 7.141120 3.350630
35 1 2 0.137961 5.658880 3.134720 0.854630
36 1 2 0.137961 7.141120 9.665280 5.846630
37 1 2 0.137961 9.980160 4.828160 7.050701
38 1 2 0.137961 2.819840 7.971840 2.058701
39 1 2 0.137961 4.828160 2.819840 9.546701
40 1 2 0.137961 7.971840 9.980160 4.554701
41 1 2 0.130918 11.000320 4.843520 8.240794
42 1 2 0.130918 1.799680 7.956480 3.248794
43 1 2 0.130918 4.843520 1.799680 0.752794
44 1 2 0.130918 7.956480 11.000320 5.744794
45 1 2 0.152579 2.695680 9.666560 1.170125
46 1 2 0.152579 10.104320 3.133440 6.162125
47 1 2 0.152579 9.666560 10.104320 3.666125
48 1 2 0.152579 3.133440 2.695680 8.658125
49 1 2 0.152579 2.440960 10.970880 2.001792
50 1 2 0.152579 10.359040 1.829120 6.993792
51 1 2 0.152579 10.970880 10.359040 4.497792
52 1 2 0.152579 1.829120 2.440960 9.489792
53 1 2 0.152579 2.266880 10.987520 0.444288
54 1 2 0.152579 10.533120 1.812480 5.436288
55 1 2 0.152579 10.987520 10.533120 2.940288
56 1 2 0.152579 1.812480 2.266880 7.932288
57 1 2 0.251845 11.667200 6.932480 8.944666
58 1 2 0.251845 1.132800 5.867520 3.952666
59 1 2 0.251845 6.932480 1.132800 1.456666
60 1 2 0.251845 5.867520 11.667200 6.448666
61 1 1 0.097975 8.883200 9.623040 0.362419
62 1 1 0.097975 3.916800 3.176960 5.354419
63 1 1 0.097975 9.623040 3.916800 2.858419
64 1 1 0.097975 3.176960 8.883200 7.850419
65 1 1 -0.183237 10.007040 8.970240 9.904128
66 1 1 -0.183237 2.792960 3.829760 4.912128
67 1 1 -0.183237 8.970240 2.792960 2.416128
68 1 1 -0.183237 3.829760 10.007040 7.408128
69 1 1 0.152579 10.554880 9.287680 8.661120
70 1 1 0.152579 2.245120 3.512320 3.669120
71 1 1 0.152579 9.287680 2.245120 1.173120
72 1 1 0.152579 3.512320 10.554880 6.165120
73 1 1 -0.196562 9.923840 10.296320 7.948262
74 1 1 -0.196562 2.876160 2.503680 2.956262
75 1 1 -0.196562 10.296320 2.876160 0.460262
76 1 1 -0.196562 2.503680 9.923840 5.452262
77 1 1 0.058690 8.826880 10.913280 8.480410
78 1 1 0.058690 3.973120 1.886720 3.488410
79 1 1 0.058690 10.913280 3.973120 0.992410
80 1 1 0.058690 1.886720 8.826880 5.984410
81 1 1 -0.156024 11.851520 8.724480 8.202854
82 1 1 -0.156024 0.948480 4.075520 3.210854
83 1 1 -0.156024 8.724480 0.948480 0.714854
84 1 1 -0.156024 4.075520 11.851520 5.706854
85 1 1 0.020668 11.065600 6.597120 7.128576
86 1 1 0.020668 1.734400 6.202880 2.136576
87 1 1 0.020668 6.597120 1.734400 9.624576
88 1 1 0.020668 6.202880 11.065600 4.632576
89 1 1 -0.423294 10.360320 5.364480 7.749581
90 1 1 -0.423294 2.439680 7.435520 2.757581
91 1 1 -0.423294 5.364480 2.439680 0.261581
92 1 1 -0.423294 7.435520 10.360320 5.253581
93 1 1 0.573586 11.889920 6.118400 5.933491
94 1 1 0.573586 0.910080 6.681600 0.941491
95 1 1 0.573586 6.118400 0.910080 8.429491
96 1 1 0.573586 6.681600 11.889920 3.437491
97 1 1 0.645552 4.183040 10.995200 1.018368
98 1 1 0.645552 8.616960 1.804800 6.010368
99 1 1 0.645552 10.995200 8.616960 3.514368
100 1 1 0.645552 1.804800 4.183040 8.506368
101 1 1 -0.603889 2.776320 10.624000 1.168128
102 1 1 -0.603889 10.023680 2.176000 6.160128
103 1 1 -0.603889 10.624000 10.023680 3.664128
104 1 1 -0.603889 2.176000 2.776320 8.656128
105 1 3 -0.242466 8.256000 10.574080 9.664512
106 1 3 -0.242466 4.544000 2.225920 4.672512
107 1 3 -0.242466 10.574080 4.544000 2.176512
108 1 3 -0.242466 2.225920 8.256000 7.168512
109 1 3 -0.331918 11.941120 7.238400 8.142950
110 1 3 -0.331918 0.858880 5.561600 3.150950
111 1 3 -0.331918 7.238400 0.858880 0.654950
112 1 3 -0.331918 5.561600 11.941120 5.646950
113 1 4 -0.535070 0.334080 6.118400 5.986406
114 1 4 -0.535070 12.465920 6.681600 0.994406
115 1 4 -0.535070 6.118400 12.465920 8.482406
116 1 4 -0.535070 6.681600 0.334080 3.490406
117 1 4 -0.554809 11.203840 5.702400 4.946074
118 1 4 -0.554809 1.596160 7.097600 9.938074
119 1 4 -0.554809 5.702400 1.596160 7.442074
120 1 4 -0.554809 7.097600 11.203840 2.450074
121 1 4 -0.510658 5.039360 10.376960 0.451277
122 1 4 -0.510658 7.760640 2.423040 5.443277
123 1 4 -0.510658 10.376960 7.760640 2.947277
124 1 4 -0.510658 2.423040 5.039360 7.939277
125 1 4 -0.589920 4.304640 12.195840 1.400755
126 1 4 -0.589920 8.495360 0.604160 6.392755
127 1 4 -0.589920 12.195840 8.495360 3.896755
128 1 4 -0.589920 0.604160 4.304640 8.888755
