LAMMPS (7 Feb 2024 - Update 1)
  using 1 OpenMP thread(s) per MPI task
# GCMC: 98.0% H₂ / 2.0% CH₄ at 60 bar, 298 K
units real
atom_style full
boundary p p p

read_data "structure.data"
Reading data file ...
  orthogonal box = (0 0 0) to (16.9331 16.9331 16.9331)
  2 by 2 by 2 MPI processor grid
  reading atoms ...
  156 atoms
Finding 1-2 1-3 1-4 neighbors ...
  special bond factors lj:    0        0        0       
  special bond factors coul:  0        0        0       
     0 = max # of 1-2 neighbors
     0 = max # of 1-3 neighbors
     0 = max # of 1-4 neighbors
     1 = max # of special neighbors
  special bonds CPU = 0.000 seconds
  read_data CPU = 0.004 seconds

timestep 1.0

pair_style lj/cut/coul/long 12.0
kspace_style pppm 1e-5
pair_coeff 1 1 0.104924 3.431000  # C
pair_coeff 2 2 0.068956 3.261000  # N
pair_coeff 3 3 0.123962 2.462000  # Zn

# Gas parameters
pair_coeff 4 4 0.072930 2.958000
pair_coeff 5 5 0.294106 3.730000

pair_modify mix geometric tail yes

# Groups
group framework type 1:3
156 atoms in group framework
group h2 type 4
0 atoms in group h2
group ch4 type 5
0 atoms in group ch4
group gases type 4 5
0 atoms in group gases

# Freeze framework
fix freeze framework setforce 0.0 0.0 0.0

# Counting
compute type_counts all count/type atom
variable n_h2 equal c_type_counts[4]
variable n_ch4 equal c_type_counts[5]

# Temperature monitoring
compute temp_gases gases temp
compute_modify temp_gases dynamic yes

# Chemical potentials
variable mu_h2 equal 2.423137
variable mu_ch4 equal 0.106391

# Initialize framework at target temperature
velocity framework create 298 98765 dist gaussian
velocity framework scale 298

# GCMC
fix gcmc_h2 gases gcmc 1000 5 0 4 54321 298 ${mu_h2} 0.2
fix gcmc_h2 gases gcmc 1000 5 0 4 54321 298 2.423137 0.2
fix gcmc_ch4 gases gcmc 1000 5 0 5 12345 298 ${mu_ch4} 0.2
fix gcmc_ch4 gases gcmc 1000 5 0 5 12345 298 0.106391 0.2

print "[INFO] Equilibration Phase"
[INFO] Equilibration Phase
thermo_style custom step temp pe ke v_n_h2 v_n_ch4 vol
thermo 5000
run 100000
WARNING: No fixes with time integration, atoms won't move (src/verlet.cpp:60)
PPPM initialization ...
WARNING: System is not charge neutral, net charge = -2.4e-05 (src/kspace.cpp:327)
  using 12-bit tables for long-range coulomb (src/kspace.cpp:342)
  G vector (1/distance) = 0.23430821
  grid = 9 9 9
  stencil order = 5
  estimated absolute RMS force accuracy = 0.0018238839
  estimated relative force accuracy = 5.4925723e-06
  using double precision FFTW3
  3d grid and FFT values/proc = 1331 162
Generated 10 of 10 mixed pair_coeff terms from geometric mixing rule
WARNING: Fix gcmc using full_energy option (src/MC/fix_gcmc.cpp:539)
0 atoms in group FixGCMC:gcmc_exclusion_group:gcmc_h2
WARNING: Fix gcmc using full_energy option (src/MC/fix_gcmc.cpp:539)
0 atoms in group FixGCMC:gcmc_exclusion_group:gcmc_ch4
WARNING: Neighbor exclusions used with KSpace solver may give inconsistent Coulombic energies (src/neighbor.cpp:651)
Neighbor list info ...
  update: every = 1 steps, delay = 0 steps, check = yes
  max neighbors/atom: 2000, page size: 100000
  master list distance cutoff = 14
  ghost atom cutoff = 14
  binsize = 7, bins = 3 3 3
  1 neighbor lists, perpetual/occasional/extra = 1 0 0
  (1) pair lj/cut/coul/long, perpetual
      attributes: half, newton on
      pair build: half/bin/newton
      stencil: half/bin/3d
      bin: standard
Per MPI rank memory allocation (min/avg/max) = 6.408 | 6.41 | 6.415 Mbytes
   Step          Temp          PotEng         KinEng         v_n_h2        v_n_ch4         Volume    
         0   298            2776376.3      137.68362      0              0              4855.2257    
      5000   304.96664      2776378.6      140.90238      1              3              4855.2257    
     10000   310.7732       2776375.4      143.58516      4              5              4855.2257    
     15000   318.63669      2776372.6      147.2183       8              6              4855.2257    
     20000   320.76539      2776370.4      148.20181      11             6              4855.2257    
     25000   326.58406      2776375        150.89018      13             7              4855.2257    
     30000   326.78254      2776374.4      150.98188      14             7              4855.2257    
     35000   333.86248      2776372.3      154.253        16             8              4855.2257    
     40000   342.90392      2776379.7      158.43037      19             10             4855.2257    
     45000   344.18479      2776372.6      159.02217      19             11             4855.2257    
     50000   348.27068      2776371.9      160.90996      20             11             4855.2257    
     55000   349.32429      2776375.9      161.39675      22             12             4855.2257    
     60000   355.85793      2776377.1      164.41546      24             12             4855.2257    
     65000   358.12193      2776378.6      165.46149      26             12             4855.2257    
     70000   359.36597      2776380.5      166.03626      26             13             4855.2257    
     75000   364.97557      2776384.7      168.62804      27             15             4855.2257    
     80000   365.45274      2776384.9      168.84851      28             15             4855.2257    
     85000   365.45274      2776384.9      168.84851      28             15             4855.2257    
     90000   368.43953      2776379        170.22848      30             14             4855.2257    
     95000   372.62919      2776379.3      172.16421      32             14             4855.2257    
    100000   378.42468      2776379.9      174.84187      33             14             4855.2257    
Loop time of 22.6214 on 8 procs for 100000 steps with 203 atoms

Performance: 381.939 ns/day, 0.063 hours/ns, 4420.587 timesteps/s, 897.379 katom-step/s
84.6% CPU use with 8 MPI tasks x 1 OpenMP threads

MPI task timing breakdown:
Section |  min time  |  avg time  |  max time  |%varavg| %total
---------------------------------------------------------------
Pair    | 3.8959     | 4.2648     | 4.7526     |  13.9 | 18.85
Bond    | 0.003335   | 0.0034369  | 0.0035595  |   0.1 |  0.02
Kspace  | 8.7015     | 9.2234     | 9.8332     |  10.7 | 40.77
Neigh   | 0.019088   | 0.020356   | 0.022229   |   0.8 |  0.09
Comm    | 6.9089     | 7.565      | 8.0417     |  14.2 | 33.44
Output  | 0.00043517 | 0.0004731  | 0.00060408 |   0.0 |  0.00
Modify  | 0.81013    | 0.81305    | 0.81468    |   0.1 |  3.59
Other   |            | 0.7309     |            |       |  3.23

Nlocal:         25.375 ave          27 max          23 min
Histogram: 2 0 0 0 0 1 0 3 0 2
Nghost:           1963 ave        1973 max        1957 min
Histogram: 2 0 2 2 0 0 0 0 1 1
Neighs:           6027 ave        6516 max        5495 min
Histogram: 2 0 0 0 1 2 0 1 0 2

Total # of neighbors = 48216
Ave neighs/atom = 237.51724
Ave special neighs/atom = 0
Neighbor list builds = 1297
Dangerous builds = 0

print "[INFO] Production Phase"
[INFO] Production Phase
run 100000
WARNING: No fixes with time integration, atoms won't move (src/verlet.cpp:60)
PPPM initialization ...
  using 12-bit tables for long-range coulomb (src/kspace.cpp:342)
  G vector (1/distance) = 0.23430556
  grid = 9 9 9
  stencil order = 5
  estimated absolute RMS force accuracy = 0.0015989435
  estimated relative force accuracy = 4.8151707e-06
  using double precision FFTW3
  3d grid and FFT values/proc = 1331 162
Generated 10 of 10 mixed pair_coeff terms from geometric mixing rule
WARNING: Neighbor exclusions used with KSpace solver may give inconsistent Coulombic energies (src/neighbor.cpp:651)
Per MPI rank memory allocation (min/avg/max) = 6.539 | 6.541 | 6.547 Mbytes
   Step          Temp          PotEng         KinEng         v_n_h2        v_n_ch4         Volume    
    100000   290.37537      2776379.9      174.84187      33             14             4855.2257    
    105000   295.16698      2776376.2      177.72701      33             14             4855.2257    
    110000   295.16698      2776376.2      177.72701      33             14             4855.2257    
    115000   296.38767      2776375.3      178.46202      34             14             4855.2257    
    120000   296.69119      2776375.8      178.64477      35             14             4855.2257    
    125000   296.69119      2776375.8      178.64477      35             14             4855.2257    
    130000   296.69119      2776375.8      178.64477      35             14             4855.2257    
    135000   296.69119      2776375.8      178.64477      35             14             4855.2257    
    140000   296.69119      2776375.8      178.64477      35             14             4855.2257    
    145000   296.69119      2776375.8      178.64477      35             14             4855.2257    
    150000   298.31346      2776376.6      179.62158      36             14             4855.2257    
    155000   298.31346      2776376.6      179.62158      36             14             4855.2257    
    160000   299.61796      2776378.1      180.40705      37             14             4855.2257    
    165000   299.61796      2776378.1      180.40705      37             14             4855.2257    
    170000   299.61796      2776378.1      180.40705      37             14             4855.2257    
    175000   299.61796      2776378.1      180.40705      37             14             4855.2257    
    180000   299.61796      2776378.1      180.40705      37             14             4855.2257    
    185000   299.61796      2776378.1      180.40705      37             14             4855.2257    
    190000   299.61796      2776378.1      180.40705      37             14             4855.2257    
    195000   301.63003      2776377.4      181.61857      38             15             4855.2257    
    200000   304.96751      2776376.4      183.62814      39             15             4855.2257    
Loop time of 24.6145 on 8 procs for 100000 steps with 210 atoms

Performance: 351.013 ns/day, 0.068 hours/ns, 4062.646 timesteps/s, 853.156 katom-step/s
85.6% CPU use with 8 MPI tasks x 1 OpenMP threads

MPI task timing breakdown:
Section |  min time  |  avg time  |  max time  |%varavg| %total
---------------------------------------------------------------
Pair    | 4.9818     | 5.3835     | 5.8257     |  12.9 | 21.87
Bond    | 0.0033466  | 0.0034564  | 0.003656   |   0.2 |  0.01
Kspace  | 8.7971     | 9.3282     | 9.9657     |  12.9 | 37.90
Neigh   | 0.02383    | 0.024915   | 0.02607    |   0.5 |  0.10
Comm    | 7.274      | 8.1385     | 8.7072     |  17.8 | 33.06
Output  | 0.00041618 | 0.00044934 | 0.00054828 |   0.0 |  0.00
Modify  | 0.92015    | 0.92322    | 0.92439    |   0.1 |  3.75
Other   |            | 0.8122     |            |       |  3.30

Nlocal:          26.25 ave          28 max          24 min
Histogram: 1 0 1 0 0 2 0 3 0 1
Nghost:        2037.62 ave        2049 max        2028 min
Histogram: 1 2 0 0 1 1 1 1 0 1
Neighs:        6458.75 ave        6869 max        5961 min
Histogram: 1 0 1 1 0 2 1 0 1 1

Total # of neighbors = 51670
Ave neighs/atom = 246.04762
Ave special neighs/atom = 0
Neighbor list builds = 1300
Dangerous builds = 0

print "[INFO] Final H2: ${n_h2}"
[INFO] Final H2: 39
print "[INFO] Final CH4: ${n_ch4}"
[INFO] Final CH4: 15
print "[INFO] Completed"
[INFO] Completed
Total wall time: 0:00:47
