LAMMPS (7 Feb 2024 - Update 1)
  using 1 OpenMP thread(s) per MPI task
# GCMC: 98.0% H₂ / 2.0% CH₄ at 60 bar, 298 K
units real
atom_style full
boundary p p p

read_data "structure.data"
Reading data file ...
  orthogonal box = (0 0 0) to (7.0585 7.0585 19.806)
  1 by 2 by 4 MPI processor grid
  reading atoms ...
  60 atoms
Finding 1-2 1-3 1-4 neighbors ...
  special bond factors lj:    0        0        0       
  special bond factors coul:  0        0        0       
     0 = max # of 1-2 neighbors
     0 = max # of 1-3 neighbors
     0 = max # of 1-4 neighbors
     1 = max # of special neighbors
  special bonds CPU = 0.000 seconds
  read_data CPU = 0.003 seconds

timestep 1.0

pair_style lj/cut/coul/long 12.0
kspace_style pppm 1e-5
pair_coeff 1 1 0.104924 3.431000  # C
pair_coeff 2 2 0.043997 2.571000  # H
pair_coeff 3 3 0.068956 3.261000  # N
pair_coeff 4 4 0.060014 3.118000  # O
pair_coeff 5 5 0.123962 2.462000  # Zn

# Gas parameters
pair_coeff 6 6 0.072930 2.958000
pair_coeff 7 7 0.294106 3.730000

pair_modify mix geometric tail yes

# Groups
group framework type 1:5
60 atoms in group framework
group h2 type 6
0 atoms in group h2
group ch4 type 7
0 atoms in group ch4
group gases type 6 7
0 atoms in group gases

# Freeze framework
fix freeze framework setforce 0.0 0.0 0.0

# Counting
compute type_counts all count/type atom
variable n_h2 equal c_type_counts[6]
variable n_ch4 equal c_type_counts[7]

# Temperature monitoring
compute temp_gases gases temp
compute_modify temp_gases dynamic yes

# Chemical potentials
variable mu_h2 equal 2.423137
variable mu_ch4 equal 0.106391

# Initialize framework at target temperature
velocity framework create 298 98765 dist gaussian
velocity framework scale 298

# GCMC
fix gcmc_h2 gases gcmc 1000 5 0 6 54321 298 ${mu_h2} 0.2
fix gcmc_h2 gases gcmc 1000 5 0 6 54321 298 2.423137 0.2
fix gcmc_ch4 gases gcmc 1000 5 0 7 12345 298 ${mu_ch4} 0.2
fix gcmc_ch4 gases gcmc 1000 5 0 7 12345 298 0.106391 0.2

print "[INFO] Equilibration Phase"
[INFO] Equilibration Phase
thermo_style custom step temp pe ke v_n_h2 v_n_ch4 vol
thermo 5000
run 100000
WARNING: No fixes with time integration, atoms won't move (src/verlet.cpp:60)
PPPM initialization ...
  using 12-bit tables for long-range coulomb (src/kspace.cpp:342)
  G vector (1/distance) = 0.24452889
  grid = 5 5 10
  stencil order = 5
  estimated absolute RMS force accuracy = 0.002127441
  estimated relative force accuracy = 6.4067255e-06
  using double precision FFTW3
  3d grid and FFT values/proc = 972 50
Generated 21 of 21 mixed pair_coeff terms from geometric mixing rule
WARNING: Fix gcmc using full_energy option (src/MC/fix_gcmc.cpp:539)
0 atoms in group FixGCMC:gcmc_exclusion_group:gcmc_h2
WARNING: Fix gcmc using full_energy option (src/MC/fix_gcmc.cpp:539)
0 atoms in group FixGCMC:gcmc_exclusion_group:gcmc_ch4
WARNING: Neighbor exclusions used with KSpace solver may give inconsistent Coulombic energies (src/neighbor.cpp:651)
Neighbor list info ...
  update: every = 1 steps, delay = 0 steps, check = yes
  max neighbors/atom: 2000, page size: 100000
  master list distance cutoff = 14
  ghost atom cutoff = 14
  binsize = 7, bins = 2 2 3
  1 neighbor lists, perpetual/occasional/extra = 1 0 0
  (1) pair lj/cut/coul/long, perpetual
      attributes: half, newton on
      pair build: half/bin/newton
      stencil: half/bin/3d
      bin: standard
Per MPI rank memory allocation (min/avg/max) = 6.411 | 6.412 | 6.413 Mbytes
   Step          Temp          PotEng         KinEng         v_n_h2        v_n_ch4         Volume    
         0   298            3441642.2      52.408602      0              0              986.7829     
      5000   303.64693      3441640.3      53.401716      1              0              986.7829     
     10000   317.03905      3441638.1      55.756958      3              1              986.7829     
     15000   327.19688      3441637.6      57.543394      4              1              986.7829     
     20000   327.19688      3441637.6      57.543394      4              1              986.7829     
     25000   327.19688      3441637.6      57.543394      4              1              986.7829     
     30000   327.19688      3441637.6      57.543394      4              1              986.7829     
     35000   327.19688      3441637.6      57.543394      4              1              986.7829     
     40000   327.19688      3441637.6      57.543394      4              1              986.7829     
     45000   329.87462      3441636.9      58.014321      5              1              986.7829     
     50000   329.87462      3441636.9      58.014321      5              1              986.7829     
     55000   329.87462      3441636.9      58.014321      5              1              986.7829     
     60000   329.87462      3441636.9      58.014321      5              1              986.7829     
     65000   331.12821      3441638.4      58.234787      6              1              986.7829     
     70000   334.53652      3441641.8      58.8342        7              1              986.7829     
     75000   342.22877      3441643.9      60.187019      8              1              986.7829     
     80000   342.22877      3441643.9      60.187019      8              1              986.7829     
     85000   331.49466      3441639.3      58.299234      7              1              986.7829     
     90000   331.49466      3441639.3      58.299234      7              1              986.7829     
     95000   331.49466      3441639.3      58.299234      7              1              986.7829     
    100000   331.49466      3441639.3      58.299234      7              1              986.7829     
Loop time of 22.6545 on 8 procs for 100000 steps with 68 atoms

Performance: 381.381 ns/day, 0.063 hours/ns, 4414.132 timesteps/s, 300.161 katom-step/s
81.4% CPU use with 8 MPI tasks x 1 OpenMP threads

MPI task timing breakdown:
Section |  min time  |  avg time  |  max time  |%varavg| %total
---------------------------------------------------------------
Pair    | 2.0754     | 2.8317     | 3.5797     |  31.3 | 12.50
Bond    | 0.0035706  | 0.0037673  | 0.0039905  |   0.2 |  0.02
Kspace  | 6.0775     | 7.2325     | 8.3667     |  27.1 | 31.93
Neigh   | 0.0095727  | 0.01141    | 0.01268    |   0.9 |  0.05
Comm    | 10.394     | 10.73      | 11.089     |   7.5 | 47.36
Output  | 0.00056109 | 0.00062335 | 0.00082466 |   0.0 |  0.00
Modify  | 0.75268    | 0.75554    | 0.75861    |   0.2 |  3.34
Other   |            | 1.089      |            |       |  4.81

Nlocal:            8.5 ave          10 max           7 min
Histogram: 1 0 0 3 0 0 3 0 0 1
Nghost:        2453.12 ave        2488 max        2427 min
Histogram: 1 1 3 0 0 1 0 0 0 2
Neighs:        3350.75 ave        4054 max        2469 min
Histogram: 2 0 0 0 1 0 3 0 0 2

Total # of neighbors = 26806
Ave neighs/atom = 394.20588
Ave special neighs/atom = 0
Neighbor list builds = 1297
Dangerous builds = 0

print "[INFO] Production Phase"
[INFO] Production Phase
run 100000
WARNING: No fixes with time integration, atoms won't move (src/verlet.cpp:60)
PPPM initialization ...
  using 12-bit tables for long-range coulomb (src/kspace.cpp:342)
  G vector (1/distance) = 0.24452852
  grid = 5 5 10
  stencil order = 5
  estimated absolute RMS force accuracy = 0.0019983983
  estimated relative force accuracy = 6.0181171e-06
  using double precision FFTW3
  3d grid and FFT values/proc = 972 50
Generated 21 of 21 mixed pair_coeff terms from geometric mixing rule
WARNING: Neighbor exclusions used with KSpace solver may give inconsistent Coulombic energies (src/neighbor.cpp:651)
Per MPI rank memory allocation (min/avg/max) = 6.541 | 6.542 | 6.543 Mbytes
   Step          Temp          PotEng         KinEng         v_n_h2        v_n_ch4         Volume    
    100000   291.9132       3441639.3      58.299234      7              1              986.7829     
    105000   291.9132       3441639.3      58.299234      7              1              986.7829     
    110000   291.9132       3441639.3      58.299234      7              1              986.7829     
    115000   291.9132       3441639.3      58.299234      7              1              986.7829     
    120000   291.9132       3441639.3      58.299234      7              1              986.7829     
    125000   291.9132       3441639.3      58.299234      7              1              986.7829     
    130000   291.9132       3441639.3      58.299234      7              1              986.7829     
    135000   291.9132       3441639.3      58.299234      7              1              986.7829     
    140000   291.9132       3441639.3      58.299234      7              1              986.7829     
    145000   291.9132       3441639.3      58.299234      7              1              986.7829     
    150000   295.5746       3441640.3      59.030466      8              1              986.7829     
    155000   295.5746       3441640.3      59.030466      8              1              986.7829     
    160000   295.5746       3441640.3      59.030466      8              1              986.7829     
    165000   299.23599      3441642.6      59.761699      9              1              986.7829     
    170000   299.23599      3441642.6      59.761699      9              1              986.7829     
    175000   299.23599      3441642.6      59.761699      9              1              986.7829     
    180000   299.23599      3441642.6      59.761699      9              1              986.7829     
    185000   299.23599      3441642.6      59.761699      9              1              986.7829     
    190000   302.12441      3441648.7      60.338557      10             1              986.7829     
    195000   299.23599      3441642.6      59.761699      9              1              986.7829     
    200000   299.23599      3441642.6      59.761699      9              1              986.7829     
Loop time of 22.6422 on 8 procs for 100000 steps with 70 atoms

Performance: 381.588 ns/day, 0.063 hours/ns, 4416.530 timesteps/s, 309.157 katom-step/s
81.7% CPU use with 8 MPI tasks x 1 OpenMP threads

MPI task timing breakdown:
Section |  min time  |  avg time  |  max time  |%varavg| %total
---------------------------------------------------------------
Pair    | 2.1589     | 3.0271     | 3.8763     |  32.7 | 13.37
Bond    | 0.0035131  | 0.0036923  | 0.0039213  |   0.2 |  0.02
Kspace  | 6.0157     | 7.1302     | 7.8263     |  21.9 | 31.49
Neigh   | 0.010498   | 0.012246   | 0.014008   |   0.9 |  0.05
Comm    | 9.961      | 10.556     | 11.176     |  13.4 | 46.62
Output  | 0.00050674 | 0.000573   | 0.00073902 |   0.0 |  0.00
Modify  | 0.76628    | 0.76865    | 0.77021    |   0.1 |  3.39
Other   |            | 1.143      |            |       |  5.05

Nlocal:           8.75 ave          10 max           8 min
Histogram: 3 0 0 0 0 4 0 0 0 1
Nghost:        2527.25 ave        2552 max        2514 min
Histogram: 2 2 1 0 1 0 0 1 0 1
Neighs:           3554 ave        4678 max        2508 min
Histogram: 2 0 0 1 1 1 0 2 0 1

Total # of neighbors = 28432
Ave neighs/atom = 406.17143
Ave special neighs/atom = 0
Neighbor list builds = 1300
Dangerous builds = 0

print "[INFO] Final H2: ${n_h2}"
[INFO] Final H2: 9
print "[INFO] Final CH4: ${n_ch4}"
[INFO] Final CH4: 1
print "[INFO] Completed"
[INFO] Completed
Total wall time: 0:00:45
