# LAMMPS data file for MOF_6219
# Cell parameters: a=15.151 b=23.282 c=33.961
# Cell angles: alpha=90.0° beta=90.0° gamma=90.0°
# <<Zeo++>>
# Framework_density: 1.408931 g/cm3
# Accessible_surface_area: 1709.410000 m2/g
# Void_fraction: 0.169440
# Accessible_volume: 0.120261 cm3/g
# Largest_included_sphere_diameter: 7.124200 A
# Largest_free_sphere_diameter: 3.806380 A
# Pore_limiting_diameter: 6.872650 A
# <<Zeo++>>
944 atoms
0 bonds
0 angles
0 dihedrals
0 impropers

7 atom types

0.0 15.151000 xlo xhi
0.0 23.282000 ylo yhi
0.0 33.961000 zlo zhi

Masses

1 12.011  # C
2 1.008  # H
3 114.818  # In
4 14.007  # N
5 15.999  # O
6 2.016  # H2 (GCMC insert - neutral charge)
7 16.043  # CH4 (GCMC insert - neutral charge)

Atoms  

1 1 3 1.259288 5.681625 8.730750 23.023181
2 1 3 1.259288 5.681625 20.371750 6.042681
3 1 3 1.259288 13.257125 8.730750 6.042681
4 1 3 1.259288 13.257125 20.371750 23.023181
5 1 3 1.259288 9.469375 14.551250 31.513431
6 1 3 1.259288 9.469375 2.910250 14.532931
7 1 3 1.259288 1.893875 14.551250 14.532931
8 1 3 1.259288 1.893875 2.910250 31.513431
9 1 3 1.259288 5.681625 8.730750 2.447569
10 1 3 1.259288 5.681625 20.371750 19.428069
11 1 3 1.259288 13.257125 8.730750 19.428069
12 1 3 1.259288 13.257125 20.371750 2.447569
13 1 3 1.259288 9.469375 14.551250 10.937819
14 1 3 1.259288 9.469375 2.910250 27.918319
15 1 3 1.259288 1.893875 14.551250 27.918319
16 1 3 1.259288 1.893875 2.910250 10.937819
17 1 2 0.305361 6.407358 13.170627 17.720850
18 1 2 0.319744 5.404362 13.580391 16.651078
19 1 2 0.304660 6.407358 1.529627 0.740350
20 1 2 0.319744 5.404362 1.939391 33.631578
21 1 2 0.304660 13.982858 13.170627 0.740350
22 1 2 0.319744 12.979862 13.580391 33.631578
23 1 2 0.305361 13.982858 1.529627 17.720850
24 1 2 0.319744 12.979862 1.939391 16.651078
25 1 2 0.305361 4.955892 4.290873 17.720850
26 1 2 0.319744 5.958888 3.881109 16.651078
27 1 2 0.304660 4.955892 15.931873 0.740350
28 1 2 0.319744 5.958888 15.521333 33.631578
29 1 2 0.304660 12.531392 4.290873 0.740350
30 1 2 0.319744 13.534388 3.881109 33.631578
31 1 2 0.305361 12.531392 15.931873 17.720850
32 1 2 0.319744 13.534388 15.521333 16.651078
33 1 2 0.304660 10.195108 10.111373 26.211100
34 1 2 0.319744 9.192112 9.701609 25.141328
35 1 2 0.305361 10.195108 21.752373 9.230600
36 1 2 0.319744 9.192112 21.342609 8.160828
37 1 2 0.305361 2.619608 10.111373 9.230600
38 1 2 0.319744 1.616612 9.701609 8.160828
39 1 2 0.304660 2.619608 21.752373 26.211100
40 1 2 0.319744 1.616612 21.342609 25.141328
41 1 2 0.304660 8.743642 18.991127 26.211100
42 1 2 0.319744 9.746638 19.400891 25.141328
43 1 2 0.305361 8.743642 7.350127 9.230600
44 1 2 0.319744 9.746638 7.760667 8.160828
45 1 2 0.305361 1.168142 18.991127 9.230600
46 1 2 0.319744 2.171138 19.400891 8.160828
47 1 2 0.304660 1.168142 7.350127 26.211100
48 1 2 0.319744 2.171138 7.760667 25.141328
49 1 2 0.304660 4.955892 13.170627 7.749900
50 1 2 0.319744 5.958888 13.580391 8.819672
51 1 2 0.304660 4.955892 1.529627 24.730400
52 1 2 0.319744 5.958888 1.939391 25.800172
53 1 2 0.304660 12.531392 13.170627 24.730400
54 1 2 0.319744 13.534388 13.580391 25.800172
55 1 2 0.304660 12.531392 1.529627 7.749900
56 1 2 0.319744 13.534388 1.939391 8.819672
57 1 2 0.304660 6.407358 4.290873 7.749900
58 1 2 0.319744 5.404362 3.881109 8.819672
59 1 2 0.304660 6.407358 15.931873 24.730400
60 1 2 0.319744 5.404362 15.521333 25.800172
61 1 2 0.304660 13.982858 4.290873 24.730400
62 1 2 0.319744 12.979862 3.881109 25.800172
63 1 2 0.304660 13.982858 15.931873 7.749900
64 1 2 0.319744 12.979862 15.521333 8.819672
65 1 2 0.305361 8.743642 10.111373 16.240150
66 1 2 0.319744 9.746638 9.701609 17.309922
67 1 2 0.305361 8.743642 21.752373 33.220650
68 1 2 0.319744 9.746638 21.342609 0.329422
69 1 2 0.305361 1.168142 10.111373 33.220650
70 1 2 0.319744 2.171138 9.701609 0.329422
71 1 2 0.304660 1.168142 21.752373 16.240150
72 1 2 0.319744 2.171138 21.342609 17.309922
73 1 2 0.305361 10.195108 18.991127 16.240150
74 1 2 0.319744 9.192112 19.400891 17.309922
75 1 2 0.305361 10.195108 7.350127 33.220650
76 1 2 0.319744 9.192112 7.760667 0.329422
77 1 2 0.305361 2.619608 18.991127 33.220650
78 1 2 0.319744 1.616612 19.400891 0.329422
79 1 2 0.305361 2.619608 7.350127 16.240150
80 1 2 0.319744 1.616612 7.760667 17.309922
81 1 2 0.141531 0.622706 11.024027 18.875524
82 1 2 0.126122 0.681795 11.869164 17.605382
83 1 2 0.126122 0.884818 10.111373 18.260830
84 1 2 0.121248 0.957543 11.054294 17.065402
85 1 2 0.141531 0.622706 22.665027 1.895024
86 1 2 0.126122 0.681795 0.228164 0.624882
87 1 2 0.121248 0.884818 21.752373 1.280330
88 1 2 0.121248 0.957543 22.695294 0.084902
89 1 2 0.141531 8.198206 11.024027 1.895024
90 1 2 0.126122 8.257295 11.869164 0.624882
91 1 2 0.121248 8.460318 10.111373 1.280330
92 1 2 0.121248 8.533043 11.054294 0.084902
93 1 2 0.141531 8.198206 22.665027 18.875524
94 1 2 0.126122 8.257295 0.228164 17.605382
95 1 2 0.126122 8.460318 21.752373 18.260830
96 1 2 0.121248 8.533043 22.695294 17.065402
97 1 2 0.141531 10.740544 6.437473 18.875524
98 1 2 0.126122 10.681455 5.592336 17.605382
99 1 2 0.126122 10.478432 7.350127 18.260830
100 1 2 0.121248 10.405707 6.407206 17.065402
101 1 2 0.141531 10.740544 18.078473 1.895024
102 1 2 0.126122 10.681455 17.233336 0.624882
103 1 2 0.121248 10.478432 18.991127 1.280330
104 1 2 0.121248 10.405707 18.048206 0.084902
105 1 2 0.141531 3.165044 6.437473 1.895024
106 1 2 0.126122 3.105955 5.592336 0.624882
107 1 2 0.121248 2.902932 7.350127 1.280330
108 1 2 0.121248 2.830207 6.407206 0.084902
109 1 2 0.141531 3.165044 18.078473 18.875524
110 1 2 0.126122 3.105955 17.233336 17.605382
111 1 2 0.126122 2.902932 18.991127 18.260830
112 1 2 0.121248 2.830207 18.048206 17.065402
113 1 2 0.141531 4.410456 12.257973 27.365774
114 1 2 0.126122 4.469545 11.412836 26.095632
115 1 2 0.126122 4.672568 13.170627 26.751080
116 1 2 0.121248 4.745293 12.227706 25.555652
117 1 2 0.141531 4.410456 0.616973 10.385274
118 1 2 0.126122 4.469545 23.053836 9.115132
119 1 2 0.126122 4.672568 1.529627 9.770580
120 1 2 0.121248 4.745293 0.586706 8.575152
121 1 2 0.141531 11.985956 12.257973 10.385274
122 1 2 0.126122 12.045045 11.412836 9.115132
123 1 2 0.121248 12.248068 13.170627 9.770580
124 1 2 0.121248 12.320793 12.227706 8.575152
125 1 2 0.141531 11.985956 0.616973 27.365774
126 1 2 0.126122 12.045045 23.053836 26.095632
127 1 2 0.121248 12.248068 1.529627 26.751080
128 1 2 0.121248 12.320793 0.586706 25.555652
129 1 2 0.141531 14.528294 16.844527 27.365774
130 1 2 0.126122 14.469205 17.689664 26.095632
131 1 2 0.121248 14.266182 15.931873 26.751080
132 1 2 0.121248 14.193457 16.874794 25.555652
133 1 2 0.141531 14.528294 5.203527 10.385274
134 1 2 0.126122 14.469205 6.048664 9.115132
135 1 2 0.121248 14.266182 4.290873 9.770580
136 1 2 0.121248 14.193457 5.233794 8.575152
137 1 2 0.141531 6.952794 16.844527 10.385274
138 1 2 0.126122 6.893705 17.689664 9.115132
139 1 2 0.126122 6.690682 15.931873 9.770580
140 1 2 0.121248 6.617957 16.874794 8.575152
141 1 2 0.141531 6.952794 5.203527 27.365774
142 1 2 0.126122 6.893705 6.048664 26.095632
143 1 2 0.121248 6.690682 4.290873 26.751080
144 1 2 0.121248 6.617957 5.233794 25.555652
145 1 2 0.141531 10.740544 11.024027 6.595226
146 1 2 0.126122 10.681455 11.869164 7.865368
147 1 2 0.121248 10.478432 10.111373 7.209920
148 1 2 0.121248 10.405707 11.054294 8.405347
149 1 2 0.141531 10.740544 22.665027 23.575726
150 1 2 0.126122 10.681455 0.228164 24.845868
151 1 2 0.121248 10.478432 21.752373 24.190420
152 1 2 0.121248 10.405707 22.695294 25.385848
153 1 2 0.141531 3.165044 11.024027 23.575726
154 1 2 0.126122 3.105955 11.869164 24.845868
155 1 2 0.126122 2.902932 10.111373 24.190420
156 1 2 0.121248 2.830207 11.054294 25.385848
157 1 2 0.141531 3.165044 22.665027 6.595226
158 1 2 0.126122 3.105955 0.228164 7.865368
159 1 2 0.121248 2.902932 21.752373 7.209920
160 1 2 0.121248 2.830207 22.695294 8.405347
161 1 2 0.141531 0.622706 6.437473 6.595226
162 1 2 0.126122 0.681795 5.592336 7.865368
163 1 2 0.121248 0.884818 7.350127 7.209920
164 1 2 0.121248 0.957543 6.407206 8.405347
165 1 2 0.141531 0.622706 18.078473 23.575726
166 1 2 0.126122 0.681795 17.233336 24.845868
167 1 2 0.126122 0.884818 18.991127 24.190420
168 1 2 0.121248 0.957543 18.048206 25.385848
169 1 2 0.141531 8.198206 6.437473 23.575726
170 1 2 0.126122 8.257295 5.592336 24.845868
171 1 2 0.121248 8.460318 7.350127 24.190420
172 1 2 0.121248 8.533043 6.407206 25.385848
173 1 2 0.141531 8.198206 18.078473 6.595226
174 1 2 0.126122 8.257295 17.233336 7.865368
175 1 2 0.121248 8.460318 18.991127 7.209920
176 1 2 0.121248 8.533043 18.048206 8.405347
177 1 2 0.141531 14.528294 12.257973 15.085476
178 1 2 0.121248 14.469205 11.412836 16.355618
179 1 2 0.121248 14.266182 13.170627 15.700170
180 1 2 0.121248 14.193457 12.227706 16.895598
181 1 2 0.141531 14.528294 0.616973 32.065976
182 1 2 0.126122 14.469205 23.053836 33.336118
183 1 2 0.121248 14.266182 1.529627 32.680670
184 1 2 0.121248 14.193457 0.586706 33.876098
185 1 2 0.141531 6.952794 12.257973 32.065976
186 1 2 0.126122 6.893705 11.412836 33.336118
187 1 2 0.126122 6.690682 13.170627 32.680670
188 1 2 0.121248 6.617957 12.227706 33.876098
189 1 2 0.141531 6.952794 0.616973 15.085476
190 1 2 0.126122 6.893705 23.053836 16.355618
191 1 2 0.121248 6.690682 1.529627 15.700170
192 1 2 0.121248 6.617957 0.586706 16.895598
193 1 2 0.141531 4.410456 16.844527 15.085476
194 1 2 0.126122 4.469545 17.689664 16.355618
195 1 2 0.121248 4.672568 15.931873 15.700170
196 1 2 0.121248 4.745293 16.874794 16.895598
197 1 2 0.141531 4.410456 5.203527 32.065976
198 1 2 0.126122 4.469545 6.048664 33.336118
199 1 2 0.126122 4.672568 4.290873 32.680670
200 1 2 0.121248 4.745293 5.233794 33.876098
201 1 2 0.141531 11.985956 16.844527 32.065976
202 1 2 0.126122 12.045045 17.689664 33.336118
203 1 2 0.126122 12.248068 15.931873 32.680670
204 1 2 0.121248 12.320793 16.874794 33.876098
205 1 2 0.141531 11.985956 5.203527 15.085476
206 1 2 0.126122 12.045045 6.048664 16.355618
207 1 2 0.121248 12.248068 4.290873 15.700170
208 1 2 0.121248 12.320793 5.233794 16.895598
209 1 2 0.141531 6.066460 11.848210 19.364562
210 1 2 0.141531 6.022523 11.976261 19.456257
211 1 2 0.103014 2.319618 10.604951 20.206795
212 1 2 0.103014 2.471128 10.111373 19.935107
213 1 2 0.141531 6.066460 0.207210 2.384062
214 1 2 0.141531 6.022523 0.335261 2.475757
215 1 2 0.103014 2.319618 22.245951 3.226295
216 1 2 0.103014 2.471128 21.752373 2.954607
217 1 2 0.141531 13.641960 11.848210 2.384062
218 1 2 0.141531 13.598022 11.976261 2.475757
219 1 2 0.103014 9.895118 10.604951 3.226295
220 1 2 0.103014 10.046628 10.111373 2.954607
221 1 2 0.141531 13.641960 0.207210 19.364562
222 1 2 0.141531 13.598022 0.335261 19.456257
223 1 2 0.103014 9.895118 22.245951 20.206795
224 1 2 0.103014 10.046628 21.752373 19.935107
225 1 2 0.141531 5.296790 5.613290 19.364562
226 1 2 0.141531 5.340727 5.485239 19.456257
227 1 2 0.103014 9.043632 6.856549 20.206795
228 1 2 0.103014 8.892122 7.350127 19.935107
229 1 2 0.141531 5.296790 17.254290 2.384062
230 1 2 0.141531 5.340727 17.126239 2.475757
231 1 2 0.103014 9.043632 18.497549 3.226295
232 1 2 0.103014 8.892122 18.991127 2.954607
233 1 2 0.141531 12.872290 5.613290 2.384062
234 1 2 0.141531 12.916227 5.485239 2.475757
235 1 2 0.103014 1.468132 6.856549 3.226295
236 1 2 0.103014 1.316622 7.350127 2.954607
237 1 2 0.141531 12.872290 17.254290 19.364562
238 1 2 0.141531 12.916227 17.126239 19.456257
239 1 2 0.103014 1.468132 18.497549 20.206795
240 1 2 0.103014 1.316622 18.991127 19.935107
241 1 2 0.141531 9.854210 11.433790 27.854812
242 1 2 0.141531 9.810272 11.305739 27.946507
243 1 2 0.103014 6.107368 12.677049 28.697045
244 1 2 0.103014 6.258878 13.170627 28.425357
245 1 2 0.141531 9.854210 23.074790 10.874312
246 1 2 0.141531 9.810272 22.946739 10.966007
247 1 2 0.103014 6.107368 1.036049 11.716545
248 1 2 0.103014 6.258878 1.529627 11.444857
249 1 2 0.141531 2.278710 11.433790 10.874312
250 1 2 0.141531 2.234773 11.305739 10.966007
251 1 2 0.103014 13.682868 12.677049 11.716545
252 1 2 0.103014 13.834378 13.170627 11.444857
253 1 2 0.141531 2.278710 23.074790 27.854812
254 1 2 0.141531 2.234773 22.946739 27.946507
255 1 2 0.103014 13.682868 1.036049 28.697045
256 1 2 0.103014 13.834378 1.529627 28.425357
257 1 2 0.141531 9.084540 17.668710 27.854812
258 1 2 0.141531 9.128478 17.796761 27.946507
259 1 2 0.103014 12.831382 16.425451 28.697045
260 1 2 0.103014 12.679872 15.931873 28.425357
261 1 2 0.141531 9.084540 6.027710 10.874312
262 1 2 0.141531 9.128478 6.155761 10.966007
263 1 2 0.103014 12.831382 4.784451 11.716545
264 1 2 0.103014 12.679872 4.290873 11.444857
265 1 2 0.141531 1.509040 17.668710 10.874312
266 1 2 0.141531 1.552977 17.796761 10.966007
267 1 2 0.103014 5.255882 16.425451 11.716545
268 1 2 0.103014 5.104372 15.931873 11.444857
269 1 2 0.141531 1.509040 6.027710 27.854812
270 1 2 0.141531 1.552977 6.155761 27.946507
271 1 2 0.103014 5.255882 4.784451 28.697045
272 1 2 0.103014 5.104372 4.290873 28.425357
273 1 2 0.141531 5.296790 11.848210 6.106188
274 1 2 0.141531 5.340727 11.976261 6.014493
275 1 2 0.103014 9.043632 10.604951 5.263955
276 1 2 0.103014 8.892122 10.111373 5.535643
277 1 2 0.141531 5.296790 0.207210 23.086688
278 1 2 0.141531 5.340727 0.335261 22.994993
279 1 2 0.103014 9.043632 22.245951 22.244455
280 1 2 0.103014 8.892122 21.752373 22.516143
281 1 2 0.141531 12.872290 11.848210 23.086688
282 1 2 0.141531 12.916227 11.976261 22.994993
283 1 2 0.103014 1.468132 10.604951 22.244455
284 1 2 0.103014 1.316622 10.111373 22.516143
285 1 2 0.141531 12.872290 0.207210 6.106188
286 1 2 0.141531 12.916227 0.335261 6.014493
287 1 2 0.103014 1.468132 22.245951 5.263955
288 1 2 0.103014 1.316622 21.752373 5.535643
289 1 2 0.141531 6.066460 5.613290 6.106188
290 1 2 0.141531 6.022523 5.485239 6.014493
291 1 2 0.103014 2.319618 6.856549 5.263955
292 1 2 0.103014 2.471128 7.350127 5.535643
293 1 2 0.141531 6.066460 17.254290 23.086688
294 1 2 0.141531 6.022523 17.126239 22.994993
295 1 2 0.103014 2.319618 18.497549 22.244455
296 1 2 0.103014 2.471128 18.991127 22.516143
297 1 2 0.141531 13.641960 5.613290 23.086688
298 1 2 0.141531 13.598022 5.485239 22.994993
299 1 2 0.103014 9.895118 6.856549 22.244455
300 1 2 0.103014 10.046628 7.350127 22.516143
301 1 2 0.141531 13.641960 17.254290 6.106188
302 1 2 0.141531 13.598022 17.126239 6.014493
303 1 2 0.103014 9.895118 18.497549 5.263955
304 1 2 0.103014 10.046628 18.991127 5.535643
305 1 2 0.141531 9.084540 11.433790 14.596438
306 1 2 0.141531 9.128478 11.305739 14.504743
307 1 2 0.103014 12.831382 12.677049 13.754205
308 1 2 0.103014 12.679872 13.170627 14.025893
309 1 2 0.141531 9.084540 23.074790 31.576938
310 1 2 0.141531 9.128478 22.946739 31.485243
311 1 2 0.103014 12.831382 1.036049 30.734705
312 1 2 0.103014 12.679872 1.529627 31.006393
313 1 2 0.141531 1.509040 11.433790 31.576938
314 1 2 0.141531 1.552977 11.305739 31.485243
315 1 2 0.103014 5.255882 12.677049 30.734705
316 1 2 0.103014 5.104372 13.170627 31.006393
317 1 2 0.141531 1.509040 23.074790 14.596438
318 1 2 0.141531 1.552977 22.946739 14.504743
319 1 2 0.103014 5.255882 1.036049 13.754205
320 1 2 0.103014 5.104372 1.529627 14.025893
321 1 2 0.141531 9.854210 17.668710 14.596438
322 1 2 0.141531 9.810272 17.796761 14.504743
323 1 2 0.103014 6.107368 16.425451 13.754205
324 1 2 0.103014 6.258878 15.931873 14.025893
325 1 2 0.141531 9.854210 6.027710 31.576938
326 1 2 0.141531 9.810272 6.155761 31.485243
327 1 2 0.103014 6.107368 4.784451 30.734705
328 1 2 0.103014 6.258878 4.290873 31.006393
329 1 2 0.141531 2.278710 17.668710 31.576938
330 1 2 0.141531 2.234773 17.796761 31.485243
331 1 2 0.103014 13.682868 16.425451 30.734705
332 1 2 0.103014 13.834378 15.931873 31.006393
333 1 2 0.141531 2.278710 6.027710 14.596438
334 1 2 0.141531 2.234773 6.155761 14.504743
335 1 2 0.103014 13.682868 4.784451 13.754205
336 1 2 0.103014 13.834378 4.290873 14.025893
337 1 1 0.406031 4.775595 10.316254 21.137326
338 1 1 0.217701 4.654387 12.425603 17.995934
339 1 1 -0.227058 5.143765 11.799318 19.147212
340 1 1 0.421048 2.857479 12.972730 16.406559
341 1 1 0.406031 4.775595 21.957254 4.156826
342 1 1 0.217701 4.654387 0.784603 1.015434
343 1 1 -0.227058 5.143765 0.158318 2.166712
344 1 1 0.421048 2.857479 1.331730 33.387059
345 1 1 0.406031 12.351095 10.316254 4.156826
346 1 1 0.217701 12.229887 12.425603 1.015434
347 1 1 -0.227058 12.719264 11.799318 2.166712
348 1 1 0.421048 10.432979 12.972730 33.387059
349 1 1 0.406031 12.351095 21.957254 21.137326
350 1 1 0.217701 12.229887 0.784603 17.995934
351 1 1 -0.227058 12.719264 0.158318 19.147212
352 1 1 0.421048 10.432979 1.331730 16.406559
353 1 1 0.406031 6.587655 7.145246 21.137326
354 1 1 0.217701 6.708863 5.035897 17.995934
355 1 1 -0.227058 6.219485 5.662182 19.147212
356 1 1 0.421048 8.505771 4.488770 16.406559
357 1 1 0.406031 6.587655 18.786246 4.156826
358 1 1 0.217701 6.708863 16.676897 1.015434
359 1 1 -0.227058 6.219485 17.303182 2.166712
360 1 1 0.421048 8.505771 16.129770 33.387059
361 1 1 0.406031 14.163155 7.145246 4.156826
362 1 1 0.217701 14.284363 5.035897 1.015434
363 1 1 -0.227058 13.794985 5.662182 2.166712
364 1 1 0.421048 0.930271 4.488770 33.387059
365 1 1 0.406031 14.163155 18.786246 21.137326
366 1 1 0.217701 14.284363 16.676897 17.995934
367 1 1 -0.227058 13.794985 17.303182 19.147212
368 1 1 0.421048 0.930271 16.129770 16.406559
369 1 1 0.406031 8.563345 12.965746 29.627576
370 1 1 0.217701 8.442137 10.856397 26.486184
371 1 1 -0.227058 8.931515 11.482682 27.637462
372 1 1 0.421048 6.645229 10.309270 24.896809
373 1 1 0.406031 8.563345 1.324746 12.647076
374 1 1 0.217701 8.442137 22.497397 9.505684
375 1 1 -0.227058 8.931515 23.123682 10.656962
376 1 1 0.421048 6.645229 21.950270 7.916309
377 1 1 0.406031 0.987845 12.965746 12.647076
378 1 1 0.217701 0.866637 10.856397 9.505684
379 1 1 -0.227058 1.356014 11.482682 10.656962
380 1 1 0.421048 14.220729 10.309270 7.916309
381 1 1 0.406031 0.987845 1.324746 29.627576
382 1 1 0.217701 0.866637 22.497397 26.486184
383 1 1 -0.227058 1.356014 23.123682 27.637462
384 1 1 0.421048 14.220729 21.950270 24.896809
385 1 1 0.406031 10.375405 16.136754 29.627576
386 1 1 0.217701 10.496613 18.246103 26.486184
387 1 1 -0.227058 10.007236 17.619818 27.637462
388 1 1 0.421048 12.293521 18.793230 24.896809
389 1 1 0.406031 10.375405 4.495754 12.647076
390 1 1 0.217701 10.496613 6.605103 9.505684
391 1 1 -0.227058 10.007236 5.978818 10.656962
392 1 1 0.421048 12.293521 7.152230 7.916309
393 1 1 0.406031 2.799905 16.136754 12.647076
394 1 1 0.217701 2.921113 18.246103 9.505684
395 1 1 -0.227058 2.431735 17.619818 10.656962
396 1 1 0.421048 4.718021 18.793230 7.916309
397 1 1 0.406031 2.799905 4.495754 29.627576
398 1 1 0.217701 2.921113 6.605103 26.486184
399 1 1 -0.227058 2.431735 5.978818 27.637462
400 1 1 0.421048 4.718021 7.152230 24.896809
401 1 1 0.406031 6.587655 10.316254 4.333424
402 1 1 0.217701 6.708863 12.425603 7.474816
403 1 1 -0.227058 6.219485 11.799318 6.323538
404 1 1 0.421048 8.505771 12.972730 9.064191
405 1 1 0.406031 6.587655 21.957254 21.313924
406 1 1 0.217701 6.708863 0.784603 24.455316
407 1 1 -0.227058 6.219485 0.158318 23.304038
408 1 1 0.421048 8.505771 1.331730 26.044691
409 1 1 0.406031 14.163155 10.316254 21.313924
410 1 1 0.217701 14.284363 12.425603 24.455316
411 1 1 -0.227058 13.794985 11.799318 23.304038
412 1 1 0.421048 0.930271 12.972730 26.044691
413 1 1 0.406031 14.163155 21.957254 4.333424
414 1 1 0.217701 14.284363 0.784603 7.474816
415 1 1 -0.227058 13.794985 0.158318 6.323538
416 1 1 0.421048 0.930271 1.331730 9.064191
417 1 1 0.406031 4.775595 7.145246 4.333424
418 1 1 0.217701 4.654387 5.035897 7.474816
419 1 1 -0.227058 5.143765 5.662182 6.323538
420 1 1 0.421048 2.857479 4.488770 9.064191
421 1 1 0.406031 4.775595 18.786246 21.313924
422 1 1 0.217701 4.654387 16.676897 24.455316
423 1 1 -0.227058 5.143765 17.303182 23.304038
424 1 1 0.421048 2.857479 16.129770 26.044691
425 1 1 0.406031 12.351095 7.145246 21.313924
426 1 1 0.217701 12.229887 5.035897 24.455316
427 1 1 -0.227058 12.719264 5.662182 23.304038
428 1 1 0.421048 10.432979 4.488770 26.044691
429 1 1 0.406031 12.351095 18.786246 4.333424
430 1 1 0.217701 12.229887 16.676897 7.474816
431 1 1 -0.227058 12.719264 17.303182 6.323538
432 1 1 0.421048 10.432979 16.129770 9.064191
433 1 1 0.406031 10.375405 12.965746 12.823674
434 1 1 0.217701 10.496613 10.856397 15.965066
435 1 1 -0.227058 10.007236 11.482682 14.813788
436 1 1 0.421048 12.293521 10.309270 17.554441
437 1 1 0.406031 10.375405 1.324746 29.804174
438 1 1 0.217701 10.496613 22.497397 32.945566
439 1 1 -0.227058 10.007236 23.123682 31.794288
440 1 1 0.421048 12.293521 21.950270 0.573941
441 1 1 0.406031 2.799905 12.965746 29.804174
442 1 1 0.217701 2.921113 10.856397 32.945566
443 1 1 -0.227058 2.431735 11.482682 31.794288
444 1 1 0.421048 4.718021 10.309270 0.573941
445 1 1 0.406031 2.799905 1.324746 12.823674
446 1 1 0.217701 2.921113 22.497397 15.965066
447 1 1 -0.227058 2.431735 23.123682 14.813788
448 1 1 0.421048 4.718021 21.950270 17.554441
449 1 1 0.406031 8.563345 16.136754 12.823674
450 1 1 0.217701 8.442137 18.246103 15.965066
451 1 1 -0.227058 8.931515 17.619818 14.813788
452 1 1 0.421048 6.645229 18.793230 17.554441
453 1 1 0.406031 8.563345 4.495754 29.804174
454 1 1 0.217701 8.442137 6.605103 32.945566
455 1 1 -0.227058 8.931515 5.978818 31.794288
456 1 1 0.421048 6.645229 7.152230 0.573941
457 1 1 0.406031 0.987845 16.136754 29.804174
458 1 1 0.217701 0.866637 18.246103 32.945566
459 1 1 -0.227058 1.356014 17.619818 31.794288
460 1 1 0.421048 14.220729 18.793230 0.573941
461 1 1 0.406031 0.987845 4.495754 12.823674
462 1 1 0.217701 0.866637 6.605103 15.965066
463 1 1 -0.227058 1.356014 5.978818 14.813788
464 1 1 0.421048 14.220729 7.152230 17.554441
465 1 1 -0.002977 4.292278 11.121811 19.948691
466 1 1 -0.094276 2.916568 11.072919 19.636250
467 1 1 0.121248 2.424160 11.701533 18.495161
468 1 1 -0.157231 3.315039 12.425603 17.666512
469 1 1 -0.021092 4.275612 10.861053 19.867185
470 1 1 -0.095182 3.049896 10.665484 19.425692
471 1 1 0.126122 2.568094 11.217268 18.264226
472 1 1 -0.142350 3.365037 12.104312 17.554441
473 1 1 -0.002977 4.292278 22.762811 2.968191
474 1 1 -0.094276 2.916568 22.713919 2.655750
475 1 1 0.121248 2.424160 0.060533 1.514661
476 1 1 -0.157231 3.315039 0.784603 0.686012
477 1 1 -0.021092 4.275612 22.502053 2.886685
478 1 1 -0.094276 3.049896 22.306484 2.445192
479 1 1 0.126122 2.568094 22.858268 1.283726
480 1 1 -0.142350 3.365037 0.463312 0.573941
481 1 1 -0.002977 11.867778 11.121811 2.968191
482 1 1 -0.094276 10.492067 11.072919 2.655750
483 1 1 0.121248 9.999660 11.701533 1.514661
484 1 1 -0.157231 10.890539 12.425603 0.686012
485 1 1 -0.021092 11.851112 10.861053 2.886685
486 1 1 -0.094276 10.625396 10.665484 2.445192
487 1 1 0.126122 10.143594 11.217268 1.283726
488 1 1 -0.142350 10.940537 12.104312 0.573941
489 1 1 -0.002977 11.867778 22.762811 19.948691
490 1 1 -0.094276 10.492067 22.713919 19.636250
491 1 1 0.121248 9.999660 0.060533 18.495161
492 1 1 -0.157231 10.890539 0.784603 17.666512
493 1 1 -0.021092 11.851112 22.502053 19.867185
494 1 1 -0.094276 10.625396 22.306484 19.425692
495 1 1 0.126122 10.143594 22.858268 18.264226
496 1 1 -0.142350 10.940537 0.463312 17.554441
497 1 1 -0.002977 7.070972 6.339689 19.948691
498 1 1 -0.094276 8.446682 6.388581 19.636250
499 1 1 0.121248 8.939090 5.759967 18.495161
500 1 1 -0.157231 8.048211 5.035897 17.666512
501 1 1 -0.021092 7.087638 6.600447 19.867185
502 1 1 -0.095182 8.313354 6.796016 19.425692
503 1 1 0.126122 8.795155 6.244232 18.264226
504 1 1 -0.142350 7.998213 5.357188 17.554441
505 1 1 -0.002977 7.070972 17.980689 2.968191
506 1 1 -0.094276 8.446682 18.029581 2.655750
507 1 1 0.121248 8.939090 17.400967 1.514661
508 1 1 -0.157231 8.048211 16.676897 0.686012
509 1 1 -0.021092 7.087638 18.241447 2.886685
510 1 1 -0.094276 8.313354 18.437016 2.445192
511 1 1 0.126122 8.795155 17.885232 1.283726
512 1 1 -0.142350 7.998213 16.998188 0.573941
513 1 1 -0.002977 14.646472 6.339689 2.968191
514 1 1 -0.094276 0.871183 6.388581 2.655750
515 1 1 0.121248 1.363590 5.759967 1.514661
516 1 1 -0.157231 0.472711 5.035897 0.686012
517 1 1 -0.021092 14.663138 6.600447 2.886685
518 1 1 -0.095182 0.737854 6.796016 2.445192
519 1 1 0.126122 1.219656 6.244232 1.283726
520 1 1 -0.142350 0.422713 5.357188 0.573941
521 1 1 -0.002977 14.646472 17.980689 19.948691
522 1 1 -0.094276 0.871183 18.029581 19.636250
523 1 1 0.121248 1.363590 17.400967 18.495161
524 1 1 -0.157231 0.472711 16.676897 17.666512
525 1 1 -0.021092 14.663138 18.241447 19.867185
526 1 1 -0.094276 0.737854 18.437016 19.425692
527 1 1 0.126122 1.219656 17.885232 18.264226
528 1 1 -0.142350 0.422713 16.998188 17.554441
529 1 1 -0.002977 8.080028 12.160189 28.438941
530 1 1 -0.094276 6.704318 12.209081 28.126500
531 1 1 0.121248 6.211910 11.580467 26.985411
532 1 1 -0.157231 7.102789 10.856397 26.156762
533 1 1 -0.021092 8.063362 12.420947 28.357435
534 1 1 -0.094276 6.837646 12.616516 27.915942
535 1 1 0.126122 6.355844 12.064732 26.754476
536 1 1 -0.142350 7.152787 11.177688 26.044691
537 1 1 -0.002977 8.080028 0.519189 11.458441
538 1 1 -0.094276 6.704318 0.568081 11.146000
539 1 1 0.121248 6.211910 23.221467 10.004911
540 1 1 -0.157231 7.102789 22.497397 9.176262
541 1 1 -0.021092 8.063362 0.779947 11.376935
542 1 1 -0.094276 6.837646 0.975516 10.935442
543 1 1 0.126122 6.355844 0.423732 9.773976
544 1 1 -0.142350 7.152787 22.818688 9.064191
545 1 1 -0.002977 0.504528 12.160189 11.458441
546 1 1 -0.094276 14.279818 12.209081 11.146000
547 1 1 0.121248 13.787410 11.580467 10.004911
548 1 1 -0.157231 14.678289 10.856397 9.176262
549 1 1 -0.021092 0.487862 12.420947 11.376935
550 1 1 -0.094276 14.413146 12.616516 10.935442
551 1 1 0.126122 13.931344 12.064732 9.773976
552 1 1 -0.142350 14.728287 11.177688 9.064191
553 1 1 -0.002977 0.504528 0.519189 28.438941
554 1 1 -0.094276 14.279818 0.568081 28.126500
555 1 1 0.126122 13.787410 23.221467 26.985411
556 1 1 -0.157231 14.678289 22.497397 26.156762
557 1 1 -0.021092 0.487862 0.779947 28.357435
558 1 1 -0.094276 14.413146 0.975516 27.915942
559 1 1 0.126122 13.931344 0.423732 26.754476
560 1 1 -0.142350 14.728287 22.818688 26.044691
561 1 1 -0.002977 10.858722 16.942311 28.438941
562 1 1 -0.094276 12.234433 16.893419 28.126500
563 1 1 0.121248 12.726840 17.522033 26.985411
564 1 1 -0.157231 11.835961 18.246103 26.156762
565 1 1 -0.021092 10.875388 16.681553 28.357435
566 1 1 -0.094276 12.101104 16.485984 27.915942
567 1 1 0.126122 12.582906 17.037768 26.754476
568 1 1 -0.142350 11.785963 17.924812 26.044691
569 1 1 -0.002977 10.858722 5.301311 11.458441
570 1 1 -0.094276 12.234433 5.252419 11.146000
571 1 1 0.121248 12.726840 5.881033 10.004911
572 1 1 -0.157231 11.835961 6.605103 9.176262
573 1 1 -0.021092 10.875388 5.040553 11.376935
574 1 1 -0.094276 12.101104 4.844984 10.935442
575 1 1 0.126122 12.582906 5.396768 9.773976
576 1 1 -0.142350 11.785963 6.283812 9.064191
577 1 1 -0.002977 3.283222 16.942311 11.458441
578 1 1 -0.094276 4.658932 16.893419 11.146000
579 1 1 0.121248 5.151340 17.522033 10.004911
580 1 1 -0.157231 4.260461 18.246103 9.176262
581 1 1 -0.021092 3.299888 16.681553 11.376935
582 1 1 -0.094276 4.525604 16.485984 10.935442
583 1 1 0.126122 5.007405 17.037768 9.773976
584 1 1 -0.142350 4.210463 17.924812 9.064191
585 1 1 -0.002977 3.283222 5.301311 28.438941
586 1 1 -0.094276 4.658932 5.252419 28.126500
587 1 1 0.121248 5.151340 5.881033 26.985411
588 1 1 -0.157231 4.260461 6.605103 26.156762
589 1 1 -0.021092 3.299888 5.040553 28.357435
590 1 1 -0.095182 4.525604 4.844984 27.915942
591 1 1 0.126122 5.007405 5.396768 26.754476
592 1 1 -0.142350 4.210463 6.283812 26.044691
593 1 1 -0.002977 7.070972 11.121811 5.522059
594 1 1 -0.094276 8.446682 11.072919 5.834500
595 1 1 0.121248 8.939090 11.701533 6.975589
596 1 1 -0.157231 8.048211 12.425603 7.804238
597 1 1 -0.021092 7.087638 10.861053 5.603565
598 1 1 -0.094276 8.313354 10.665484 6.045058
599 1 1 0.126122 8.795155 11.217268 7.206524
600 1 1 -0.142350 7.998213 12.104312 7.916309
601 1 1 -0.002977 7.070972 22.762811 22.502559
602 1 1 -0.094276 8.446682 22.713919 22.815000
603 1 1 0.121248 8.939090 0.060533 23.956089
604 1 1 -0.157231 8.048211 0.784603 24.784738
605 1 1 -0.021092 7.087638 22.502053 22.584065
606 1 1 -0.094276 8.313354 22.306484 23.025558
607 1 1 0.126122 8.795155 22.858268 24.187024
608 1 1 -0.142350 7.998213 0.463312 24.896809
609 1 1 -0.002977 14.646472 11.121811 22.502559
610 1 1 -0.094276 0.871183 11.072919 22.815000
611 1 1 0.121248 1.363590 11.701533 23.956089
612 1 1 -0.157231 0.472711 12.425603 24.784738
613 1 1 -0.021092 14.663138 10.861053 22.584065
614 1 1 -0.094276 0.737854 10.665484 23.025558
615 1 1 0.126122 1.219656 11.217268 24.187024
616 1 1 -0.142350 0.422713 12.104312 24.896809
617 1 1 -0.002977 14.646472 22.762811 5.522059
618 1 1 -0.094276 0.871183 22.713919 5.834500
619 1 1 0.121248 1.363590 0.060533 6.975589
620 1 1 -0.157231 0.472711 0.784603 7.804238
621 1 1 -0.021092 14.663138 22.502053 5.603565
622 1 1 -0.094276 0.737854 22.306484 6.045058
623 1 1 0.126122 1.219656 22.858268 7.206524
624 1 1 -0.142350 0.422713 0.463312 7.916309
625 1 1 -0.002977 4.292278 6.339689 5.522059
626 1 1 -0.094276 2.916568 6.388581 5.834500
627 1 1 0.121248 2.424160 5.759967 6.975589
628 1 1 -0.157231 3.315039 5.035897 7.804238
629 1 1 -0.021092 4.275612 6.600447 5.603565
630 1 1 -0.094276 3.049896 6.796016 6.045058
631 1 1 0.126122 2.568094 6.244232 7.206524
632 1 1 -0.142350 3.365037 5.357188 7.916309
633 1 1 -0.002977 4.292278 17.980689 22.502559
634 1 1 -0.094276 2.916568 18.029581 22.815000
635 1 1 0.121248 2.424160 17.400967 23.956089
636 1 1 -0.157231 3.315039 16.676897 24.784738
637 1 1 -0.021092 4.275612 18.241447 22.584065
638 1 1 -0.094276 3.049896 18.437016 23.025558
639 1 1 0.126122 2.568094 17.885232 24.187024
640 1 1 -0.142350 3.365037 16.998188 24.896809