# LAMMPS data file for MOF_2696
# Cell parameters: a=9.094 b=12.713 c=33.946
# Cell angles: alpha=90.0° beta=90.0° gamma=90.0°
# <<Zeo++>>
# Framework_density: 1.002020 g/cm3
# Accessible_surface_area: 2870.470000 m2/g
# Void_fraction: 0.216480
# Accessible_volume: 0.216037 cm3/g
# Largest_included_sphere_diameter: 5.982500 A
# Largest_free_sphere_diameter: 4.522020 A
# Pore_limiting_diameter: 5.953710 A
# <<Zeo++>>
180 atoms
0 bonds
0 angles
0 dihedrals
0 impropers

6 atom types

0.0 9.094000 xlo xhi
0.0 12.713400 ylo yhi
0.0 33.946300 zlo zhi

Masses

1 12.011  # C
2 1.008  # H
3 15.999  # O
4 65.380  # Zn
5 2.016  # H2 (GCMC insert - neutral charge)
6 16.043  # CH4 (GCMC insert - neutral charge)

Atoms  

1 1 4 0.978834 8.200605 10.357861 6.098453
2 1 4 0.935229 2.154369 3.005956 13.884376
3 1 4 0.978834 5.440395 2.355539 23.071603
4 1 4 0.933121 2.392631 9.707444 30.857526
5 1 4 0.978834 0.893395 4.001161 10.874697
6 1 4 0.933121 6.939631 9.362656 3.088774
7 1 4 0.978834 3.653605 8.712239 27.847847
8 1 4 0.933121 6.701369 3.350744 20.061924
9 1 2 0.143499 0.870932 0.253378 9.434695
10 1 2 0.143499 7.929786 3.895386 15.990744
11 1 2 0.128179 2.154460 7.681182 11.511190
12 1 2 0.123104 2.040875 9.119195 9.850537
13 1 2 0.128179 3.003384 11.859949 12.677585
14 1 2 0.128179 6.480203 5.719759 12.662988
15 1 2 0.128179 4.757890 6.392170 16.253828
16 1 2 0.123104 4.566552 10.404265 13.230910
17 1 2 0.128179 5.683750 8.720248 14.356569
18 1 2 0.143499 3.676068 12.460022 26.407845
19 1 2 0.143499 5.711214 8.818014 32.963894
20 1 2 0.128179 2.392540 5.032218 28.484340
21 1 2 0.123104 2.506125 3.594205 26.823687
22 1 2 0.128179 1.543616 0.853451 29.650735
23 1 2 0.128179 7.160797 6.993641 29.636138
24 1 2 0.128179 8.883110 6.321230 33.226978
25 1 2 0.123104 9.074448 2.309135 30.204060
26 1 2 0.128179 7.957250 3.993152 31.329719
27 1 2 0.143499 8.223068 6.610078 7.538455
28 1 2 0.143499 1.164214 10.252086 0.982406
29 1 2 0.128179 6.939540 1.324482 5.461960
30 1 2 0.123104 7.053125 2.762495 7.122613
31 1 2 0.128179 6.090616 5.503249 4.295565
32 1 2 0.128179 2.613797 12.076459 4.310162
33 1 2 0.128179 4.336110 0.035470 0.719322
34 1 2 0.123104 4.527448 4.047565 3.742240
35 1 2 0.128179 3.410250 2.363548 2.616581
36 1 2 0.143499 5.417932 6.103322 24.511605
37 1 2 0.143499 3.382786 2.461314 17.955556
38 1 2 0.128179 6.701460 11.388918 22.435110
39 1 2 0.123104 6.587875 9.950905 24.095763
40 1 2 0.128179 7.550384 7.210151 21.268715
41 1 2 0.128179 1.933203 0.636941 21.283312
42 1 2 0.128179 0.210890 12.677930 17.692472
43 1 2 0.123104 0.019552 8.665835 20.715390
44 1 2 0.128179 1.136750 10.349852 19.589731
45 1 1 0.067639 3.302941 9.227386 12.200300
46 1 1 -0.010638 1.339546 10.957679 9.477807
47 1 1 -0.106659 1.295895 12.284958 9.939477
48 1 1 -0.102010 7.299754 4.468760 15.571168
49 1 1 -0.137300 2.877342 7.892479 12.091672
50 1 1 0.077147 2.608159 10.294040 11.412746
51 1 1 -0.010638 7.382509 4.724299 14.199737
52 1 1 -0.148200 1.997042 10.004174 10.190679
53 1 1 -0.076445 3.498462 6.867779 12.814728
54 1 1 -0.137300 2.566327 11.614962 11.871021
55 1 1 -0.148200 6.438552 5.567198 13.598888
56 1 1 -0.010638 1.881549 12.559568 11.134386
57 1 1 0.599300 1.825166 1.276425 11.646976
58 1 1 -0.137300 5.400927 5.944786 15.717137
59 1 1 0.001484 6.285773 5.061205 16.314592
60 1 1 0.599300 2.915536 5.499817 12.682338
61 1 1 0.599300 8.519259 4.168724 13.398605
62 1 1 0.077147 5.433665 6.188883 14.352496
63 1 1 0.061317 4.544272 7.179257 13.666780
64 1 1 -0.129642 4.307828 9.500724 13.089693
65 1 1 0.566098 6.238484 4.803123 17.798045
66 1 1 0.517461 0.682959 10.562293 8.174269
67 1 1 -0.129642 4.953502 8.502722 13.788987
68 1 1 0.067639 1.244059 3.486014 29.173450
69 1 1 -0.010638 3.207454 1.755721 26.450957
70 1 1 -0.106659 3.251105 0.428442 26.912627
71 1 1 -0.102010 6.341246 8.244640 32.544318
72 1 1 -0.137300 1.669658 4.820921 29.064822
73 1 1 0.077147 1.938841 2.419360 28.385896
74 1 1 -0.010638 6.258491 7.989101 31.172887
75 1 1 -0.148200 2.549958 2.709226 27.163829
76 1 1 -0.076445 1.048538 5.845621 29.787878
77 1 1 -0.137300 1.980673 1.098438 28.844171
78 1 1 -0.148200 7.202448 7.146202 30.572038
79 1 1 -0.010638 2.665451 0.153832 28.107536
80 1 1 0.599300 2.721834 11.436975 28.620126
81 1 1 -0.137300 8.240073 6.768614 32.690287
82 1 1 0.001484 7.355227 7.652195 33.287742
83 1 1 0.599300 1.631464 7.213583 29.655488
84 1 1 0.599300 5.121741 8.544676 30.371755
85 1 1 0.077147 8.207335 6.524517 31.325646
86 1 1 0.061317 0.002728 5.534143 30.639930
87 1 1 -0.129642 0.239172 3.212676 30.062843
88 1 1 0.566098 7.402516 7.910277 0.824895
89 1 1 0.517461 3.864041 2.151107 25.147419
90 1 1 -0.129642 8.687498 4.210678 30.762137
91 1 1 0.067639 5.791059 2.870686 4.772850
92 1 1 -0.010638 7.754454 4.600979 7.495343
93 1 1 -0.106659 7.798105 5.928258 7.033673
94 1 1 -0.102010 1.794246 10.825460 1.401982
95 1 1 -0.137300 6.216658 1.535779 4.881478
96 1 1 0.067639 6.485841 3.937340 5.560404
97 1 1 -0.010638 1.711491 11.080999 2.773413
98 1 1 -0.148200 7.096958 3.647474 6.782471
99 1 1 -0.076445 5.595538 0.511079 4.158422
100 1 1 -0.137300 6.527673 5.258262 5.102129
101 1 1 -0.148200 2.655448 11.923898 3.374262
102 1 1 -0.010638 7.212451 6.202868 5.838764
103 1 1 0.599300 7.268834 7.633125 5.326174
104 1 1 -0.137300 3.693073 12.301486 1.256013
105 1 1 0.001484 2.808227 11.417905 0.658558
106 1 1 0.599300 6.178464 11.856517 4.290812
107 1 1 0.605331 0.574741 10.525424 3.574545
108 1 1 0.077147 3.660335 12.545583 2.620654
109 1 1 0.061317 4.549728 0.822557 3.306370
110 1 1 -0.129642 4.786172 3.144024 3.883457
111 1 1 0.566098 2.855516 11.159823 33.121405
112 1 1 0.517461 8.411041 4.205593 8.798881
113 1 1 -0.129642 4.140498 2.146022 3.184163
114 1 1 0.067639 7.849941 9.842714 21.746000
115 1 1 -0.010638 5.886546 8.112421 24.468493
116 1 1 -0.106659 5.842895 6.785142 24.006823
117 1 1 -0.102010 2.752754 1.887940 18.375132
118 1 1 -0.137300 7.424342 11.177621 21.854628
119 1 1 0.077147 7.155159 8.776060 22.533554
120 1 1 -0.010638 2.835509 1.632401 19.746563
121 1 1 -0.148200 6.544042 9.065926 23.755621
122 1 1 -0.076445 8.045462 12.202321 21.131572
123 1 1 -0.137300 7.113327 7.455138 22.075279
124 1 1 -0.148200 1.891552 0.789502 20.347412
125 1 1 -0.010638 6.428549 6.510532 22.811914
126 1 1 0.599300 6.372166 5.080275 22.299324
127 1 1 -0.137300 0.853927 0.411914 18.229163
128 1 1 0.001484 1.738773 1.295495 17.631708
129 1 1 0.599300 7.462536 0.856883 21.263962
130 1 1 0.605331 3.972259 2.187976 20.547695
131 1 1 0.077147 0.886665 0.167817 19.593804
132 1 1 0.061317 9.091272 11.890843 20.279520
133 1 1 -0.129642 8.854828 9.569376 20.856607
134 1 1 0.566098 1.691484 1.553577 16.148255
135 1 1 0.517461 5.229959 8.507807 25.772031
136 1 1 -0.129642 0.406502 10.567378 20.157313
137 1 3 -0.538535 2.539954 1.554849 12.648391
138 1 3 -0.517146 3.174715 4.637848 13.554758
139 1 3 -0.538535 7.035118 3.883944 18.242742
140 1 3 -0.538535 8.478336 4.354340 12.149381
141 1 3 -0.482120 5.465494 5.441335 18.527891
142 1 3 -0.505940 1.067636 2.068470 11.083467
143 1 3 -0.449614 0.927588 9.494367 7.661680
144 1 3 -0.538535 0.351028 3.632218 14.033400
145 1 3 -0.547821 2.177104 5.293860 11.687711
146 1 3 -0.482120 8.952134 11.331453 7.661680
147 1 3 0.166522 6.538586 9.903739 7.383320
148 1 3 -0.534788 2.007046 11.158551 29.621541
149 1 3 -0.517146 1.372285 8.075552 30.527908
150 1 3 -0.538535 6.605882 8.829456 1.269592
151 1 3 -0.538535 5.162664 8.359061 29.122531
152 1 3 -0.482120 8.175506 7.272065 1.554741
153 1 3 -0.505940 3.479364 10.644930 28.056617
154 1 3 -0.449614 3.619412 3.219033 24.634830
155 1 3 -0.538535 4.195972 9.081182 31.006550
156 1 3 -0.547821 2.369896 7.419540 28.660861
157 1 3 -0.482120 4.688866 1.381947 24.634830
158 1 3 0.166522 7.102414 2.809661 24.356470
159 1 3 -0.534788 6.554046 7.911549 4.324759
160 1 3 -0.517146 5.919285 10.994548 3.418392
161 1 3 -0.538535 2.058882 10.240644 32.676708
162 1 3 -0.538535 0.615664 10.711040 4.823769
163 1 3 -0.482120 3.628506 11.798035 32.391559
164 1 3 -0.505940 8.026364 8.425170 5.889683
165 1 3 -0.444440 8.166412 3.137667 9.311470
166 1 3 -0.534788 8.742972 9.988918 2.939750
167 1 3 -0.547821 6.916896 11.650560 5.285439
168 1 3 -0.482120 0.141866 4.974753 9.311470
169 1 3 0.164435 2.555414 3.547039 9.589830
170 1 3 -0.538535 7.086954 4.801851 21.297909
171 1 3 -0.517146 7.721715 1.718852 20.391542
172 1 3 -0.538535 2.488118 2.472756 15.703558
173 1 3 -0.538535 3.931336 2.002360 21.796919
174 1 3 -0.482120 0.918494 0.915365 15.418409
175 1 3 -0.505940 5.614636 4.288230 22.862833
176 1 3 -0.449614 5.474588 9.575733 26.284620
177 1 3 -0.538535 4.898028 2.724482 19.912900
178 1 3 -0.547821 6.724104 1.062840 22.258589
179 1 3 -0.482120 4.405134 7.738647 26.284620
180 1 3 0.166522 1.991586 9.166361 26.562980
