# LAMMPS data file for MOF_5989
# Cell parameters: a=7.878 b=12.877 c=17.325
# Cell angles: alpha=90.0° beta=90.0° gamma=90.0°
# <<Zeo++>>
# Framework_density: 1.340133 g/cm3
# Accessible_surface_area: 1184.520000 m2/g
# Void_fraction: 0.064080
# Accessible_volume: 0.047815 cm3/g
# Largest_included_sphere_diameter: 4.650210 A
# Largest_free_sphere_diameter: 2.927640 A
# Pore_limiting_diameter: 4.278840 A
# <<Zeo++>>
124 atoms
0 bonds
0 angles
0 dihedrals
0 impropers

7 atom types

0.0 7.878000 xlo xhi
0.0 12.877000 ylo yhi
0.0 17.325000 zlo zhi

Masses

1 12.011  # C
2 1.008  # H
3 14.007  # N
4 15.999  # O
5 65.380  # Zn
6 2.016  # H2 (GCMC insert - neutral charge)
7 16.043  # CH4 (GCMC insert - neutral charge)

Atoms  

1 1 5 0.743394 5.589677 0.261403 2.448542
2 1 5 0.743394 2.288323 6.699903 6.213958
3 1 5 0.743394 6.227323 12.615597 11.111042
4 1 5 0.743394 1.650677 6.177097 14.876458
5 1 2 0.103509 5.009305 10.772383 0.807345
6 1 2 0.103509 2.868695 4.333883 7.855155
7 1 2 0.123745 5.337975 11.722706 14.265752
8 1 2 0.123745 2.540025 5.284206 11.721748
9 1 2 0.133374 5.728960 1.076002 14.909202
10 1 2 0.133374 2.149040 7.514502 11.078298
11 1 2 0.109552 5.689413 1.632546 17.148458
12 1 2 0.109552 2.188587 8.071046 8.839042
13 1 2 0.109552 2.671272 0.146798 2.047815
14 1 2 0.109552 5.206728 6.585298 6.614685
15 1 2 0.093604 5.757085 9.218516 15.344060
16 1 2 0.093604 2.120915 2.780016 10.643440
17 1 2 0.203038 4.808652 9.041199 16.622125
18 1 2 0.203038 3.069348 2.602699 9.365375
19 1 2 0.133374 0.863271 3.173279 4.005367
20 1 2 0.133374 7.014729 9.611779 4.657133
21 1 2 0.109552 4.864586 2.756322 3.991333
22 1 2 0.109552 3.013414 9.194822 4.671166
23 1 2 0.103509 6.807695 2.104617 9.469845
24 1 2 0.103509 1.070305 8.543117 16.517655
25 1 2 0.123745 6.479025 1.154294 5.603251
26 1 2 0.123745 1.398975 7.592794 3.059248
27 1 2 0.133374 6.088040 11.800998 6.246702
28 1 2 0.133374 1.789960 5.362498 2.415798
29 1 2 0.109552 6.127587 11.244454 8.485958
30 1 2 0.109552 1.750413 4.805954 0.176542
31 1 2 0.109552 1.267728 12.730202 10.710315
32 1 2 0.109552 6.610272 6.291702 15.277185
33 1 2 0.093604 6.059915 3.658484 6.681559
34 1 2 0.093604 1.818085 10.096984 1.980940
35 1 2 0.206838 7.008348 3.835801 7.959625
36 1 2 0.206838 0.869652 10.274301 0.702875
37 1 2 0.133374 3.075729 9.703721 12.667867
38 1 2 0.133374 4.802271 3.265221 13.319633
39 1 2 0.109552 6.952414 10.120678 12.653833
40 1 2 0.109552 0.925586 3.682178 13.333666
41 1 1 0.048477 5.157727 11.423187 0.131670
42 1 1 0.048477 2.720273 4.984687 8.530830
43 1 1 -0.062606 5.133305 11.014986 16.133040
44 1 1 -0.062606 2.744695 4.576486 9.854460
45 1 1 -0.062606 5.344435 11.960158 15.185362
46 1 1 -0.062606 2.533565 5.521658 10.802138
47 1 1 -0.120400 5.570534 0.406913 15.564780
48 1 1 -0.120400 2.307466 6.845413 10.422720
49 1 1 0.076422 5.561868 0.727551 16.890142
50 1 1 0.076422 2.316132 7.166050 9.097357
51 1 1 -0.062606 1.531483 1.533651 2.976435
52 1 1 -0.062606 6.346517 7.972151 5.686065
53 1 1 0.073553 2.725000 0.914267 2.605680
54 1 1 0.073553 5.153000 7.352767 6.056820
55 1 1 0.203038 4.941082 9.559885 15.790005
56 1 1 0.203038 2.936918 3.121385 10.197495
57 1 1 -0.062606 1.642563 2.695156 3.747397
58 1 1 -0.062606 6.235437 9.133656 4.915102
59 1 1 -0.052429 2.888075 3.143276 4.130280
60 1 1 -0.052429 4.989925 9.581776 4.532220
61 1 1 0.035128 4.007539 2.441479 3.728340
62 1 1 0.035128 3.870461 8.879979 4.934160
63 1 1 0.547100 0.233189 0.923281 2.564100
64 1 1 0.547100 7.644811 7.361781 6.098400
65 1 1 0.547100 3.062179 4.373029 5.006925
66 1 1 0.547100 4.815821 10.811529 3.655575
67 1 1 0.048477 6.659273 1.453813 8.794170
68 1 1 0.048477 1.218727 7.892313 17.193330
69 1 1 -0.062606 6.683695 1.862014 7.470540
70 1 1 -0.062606 1.194305 8.300514 1.191960
71 1 1 -0.062606 6.472565 0.916842 6.522862
72 1 1 -0.062606 1.405435 7.355342 2.139638
73 1 1 -0.120400 6.246466 12.470087 6.902280
74 1 1 -0.120400 1.631534 6.031587 1.760220
75 1 1 0.076422 6.255132 12.149450 8.227642
76 1 1 0.076422 1.622868 5.710950 0.434858
77 1 1 -0.062606 2.407517 11.343349 11.638935
78 1 1 -0.062606 5.470483 4.904849 14.348565
79 1 1 0.073553 1.214000 11.962733 11.268180
80 1 1 0.073553 6.664000 5.524233 14.719320
81 1 1 0.203038 6.875918 3.317115 7.127505
82 1 1 0.203038 1.002082 9.755615 1.534995
83 1 1 -0.062606 2.296437 10.181844 12.409897
84 1 1 -0.062606 5.581563 3.743344 13.577602
85 1 1 -0.052429 1.050925 9.733724 12.792780
86 1 1 -0.052429 6.827075 3.295224 13.194720
87 1 1 0.035128 7.809461 10.435521 12.390840
88 1 1 0.034631 0.068539 3.997021 13.596660
89 1 1 0.547100 3.705811 11.953719 11.226600
90 1 1 0.547100 4.172189 5.515219 14.760900
91 1 1 0.547100 0.876821 8.503971 13.669425
92 1 1 0.547100 7.001179 2.065471 12.318075
93 1 3 -0.213740 5.379098 12.686420 0.502425
94 1 3 -0.213740 2.498902 6.247920 8.160075
95 1 3 -0.237184 3.929546 1.322468 2.976435
96 1 3 -0.237184 3.948454 7.760968 5.686065
97 1 3 -0.213740 6.437902 0.190580 9.164925
98 1 3 -0.213740 1.440098 6.629080 16.822575
99 1 3 -0.237184 0.009454 11.554532 11.638935
100 1 3 -0.237184 7.868546 5.116032 14.348565
101 1 4 -0.548271 7.048447 1.464115 3.040537
102 1 4 -0.548271 0.829553 7.902615 5.621962
103 1 4 -0.520050 0.232401 12.815190 1.843380
104 1 4 -0.520050 7.645599 6.376690 6.819120
105 1 4 -0.520050 2.041190 5.149512 5.043308
106 1 4 -0.520050 5.836810 11.588012 3.619193
107 1 4 -0.548271 4.100499 4.515964 5.627160
108 1 4 -0.548271 3.777501 10.954464 3.035340
109 1 4 -0.548271 4.768553 11.412885 11.703037
110 1 4 -0.548271 3.109447 4.974385 14.284463
111 1 4 -0.520050 3.706599 0.061810 10.505880
112 1 4 -0.520050 4.171401 6.500310 15.481620
113 1 4 -0.520050 1.897810 7.727488 13.705808
114 1 4 -0.520050 5.980190 1.288988 12.281692
115 1 4 -0.548271 7.716501 8.361036 14.289660
116 1 4 -0.548271 0.161499 1.922536 11.697840
117 1 4 -0.147286 4.128072 9.026777 16.528050
118 1 4 -0.147286 3.749928 2.588277 9.459450
119 1 4 -0.147286 7.688928 3.850223 7.865550
120 1 4 -0.147286 0.189072 10.288723 0.796950
121 1 4 -0.237184 3.937424 9.386045 15.020775
122 1 4 -0.237184 3.940576 2.947545 10.966725
123 1 4 -0.237184 0.001576 3.490955 6.358275
124 1 4 -0.237184 7.876424 9.929455 2.304225
